mesh: [    48,    48,    48 ]
nqpoint: 2600   
reciprocal_lattice:
- [   0.28474720,   0.00000000,   0.00000000 ] # a*
- [   0.00000000,   0.28474720,   0.00000000 ] # b*
- [   0.00000000,   0.00000000,   0.28474720 ] # c*
natom:   8      
lattice:
- [     3.511887000000000,     0.000000000000000,     0.000000000000000 ] # a
- [     0.000000000000000,     3.511887000000000,     0.000000000000000 ] # b
- [     0.000000000000000,     0.000000000000000,     3.511887000000000 ] # c
points:
- symbol: C  # 1
  coordinates: [  0.756696000000000,  0.756696000000000,  0.756696000000000 ]
  mass: 12.010700
- symbol: C  # 2
  coordinates: [  0.006695000000000,  0.506696000000000,  0.006695000000000 ]
  mass: 12.010700
- symbol: C  # 3
  coordinates: [  0.506696000000000,  0.506696000000000,  0.506696000000000 ]
  mass: 12.010700
- symbol: C  # 4
  coordinates: [  0.006695000000000,  0.006695000000000,  0.506696000000000 ]
  mass: 12.010700
- symbol: C  # 5
  coordinates: [  0.506696000000000,  0.006695000000000,  0.006695000000000 ]
  mass: 12.010700
- symbol: C  # 6
  coordinates: [  0.756696000000000,  0.256696000000000,  0.256696000000000 ]
  mass: 12.010700
- symbol: C  # 7
  coordinates: [  0.256696000000000,  0.256696000000000,  0.756696000000000 ]
  mass: 12.010700
- symbol: C  # 8
  coordinates: [  0.256696000000000,  0.756696000000000,  0.256696000000000 ]
  mass: 12.010700

phonon:
- q-position: [    0.0104167,    0.0104167,    0.0104167 ]
  distance_from_gamma:  0.005137465
  weight: 8    
  band:
  - # 1
    frequency:     0.6087479039
  - # 2
    frequency:     0.6087479039
  - # 3
    frequency:     0.9745525082
  - # 4
    frequency:    23.6167186742
  - # 5
    frequency:    23.6167186742
  - # 6
    frequency:    23.6167186742
  - # 7
    frequency:    23.6317518528
  - # 8
    frequency:    23.6317518528
  - # 9
    frequency:    23.6317518528
  - # 10
    frequency:    34.3594913401
  - # 11
    frequency:    34.3594913401
  - # 12
    frequency:    34.3594913401
  - # 13
    frequency:    34.3678588698
  - # 14
    frequency:    34.3678588698
  - # 15
    frequency:    34.3678588698
  - # 16
    frequency:    37.2678933618
  - # 17
    frequency:    37.2678933618
  - # 18
    frequency:    37.2678933618
  - # 19
    frequency:    37.6187904110
  - # 20
    frequency:    37.6187904110
  - # 21
    frequency:    37.6187904110
  - # 22
    frequency:    40.8982653422
  - # 23
    frequency:    40.8982653422
  - # 24
    frequency:    40.9017607844

- q-position: [    0.0312500,    0.0104167,    0.0104167 ]
  distance_from_gamma:  0.009837496
  weight: 24   
  band:
  - # 1
    frequency:     1.1868366608
  - # 2
    frequency:     1.2240597663
  - # 3
    frequency:     1.8134204346
  - # 4
    frequency:    23.5882514320
  - # 5
    frequency:    23.6032879817
  - # 6
    frequency:    23.6281035390
  - # 7
    frequency:    23.6281035390
  - # 8
    frequency:    23.6731220930
  - # 9
    frequency:    23.6731220930
  - # 10
    frequency:    34.3373736068
  - # 11
    frequency:    34.3373736068
  - # 12
    frequency:    34.3624613659
  - # 13
    frequency:    34.3624613659
  - # 14
    frequency:    34.3769503601
  - # 15
    frequency:    34.3858267428
  - # 16
    frequency:    36.8990684553
  - # 17
    frequency:    37.2621550707
  - # 18
    frequency:    37.2621550707
  - # 19
    frequency:    37.6116746389
  - # 20
    frequency:    37.6116746389
  - # 21
    frequency:    37.9511971395
  - # 22
    frequency:    40.8865986161
  - # 23
    frequency:    40.8873985830
  - # 24
    frequency:    40.9048787565

- q-position: [    0.0520833,    0.0104167,    0.0104167 ]
  distance_from_gamma:  0.015412394
  weight: 24   
  band:
  - # 1
    frequency:     1.9063602156
  - # 2
    frequency:     1.9363491457
  - # 3
    frequency:     2.7935349051
  - # 4
    frequency:    23.5314434468
  - # 5
    frequency:    23.5464857860
  - # 6
    frequency:    23.6657581980
  - # 7
    frequency:    23.6657581980
  - # 8
    frequency:    23.7405223171
  - # 9
    frequency:    23.7405223171
  - # 10
    frequency:    34.3013900312
  - # 11
    frequency:    34.3013900312
  - # 12
    frequency:    34.3432094298
  - # 13
    frequency:    34.3432094298
  - # 14
    frequency:    34.4115266607
  - # 15
    frequency:    34.4215779205
  - # 16
    frequency:    36.5119090447
  - # 17
    frequency:    37.2508791680
  - # 18
    frequency:    37.2508791680
  - # 19
    frequency:    37.5976524189
  - # 20
    frequency:    37.5976524189
  - # 21
    frequency:    38.2657102946
  - # 22
    frequency:    40.8632944449
  - # 23
    frequency:    40.8641824821
  - # 24
    frequency:    40.9125671953

- q-position: [    0.0729167,    0.0104167,    0.0104167 ]
  distance_from_gamma:  0.021182310
  weight: 24   
  band:
  - # 1
    frequency:     2.6448089217
  - # 2
    frequency:     2.6674378350
  - # 3
    frequency:     3.8109374855
  - # 4
    frequency:    23.4465409031
  - # 5
    frequency:    23.4615896122
  - # 6
    frequency:    23.7293072057
  - # 7
    frequency:    23.7293072057
  - # 8
    frequency:    23.8334235658
  - # 9
    frequency:    23.8334235658
  - # 10
    frequency:    34.2513527456
  - # 11
    frequency:    34.2513527456
  - # 12
    frequency:    34.3099011330
  - # 13
    frequency:    34.3099011330
  - # 14
    frequency:    34.4623937664
  - # 15
    frequency:    34.4747509967
  - # 16
    frequency:    36.1067776804
  - # 17
    frequency:    37.2344561291
  - # 18
    frequency:    37.2344561291
  - # 19
    frequency:    37.5771339995
  - # 20
    frequency:    37.5771339995
  - # 21
    frequency:    38.5624984088
  - # 22
    frequency:    40.8284114770
  - # 23
    frequency:    40.8293228144
  - # 24
    frequency:    40.9240607604

- q-position: [    0.0937500,    0.0104167,    0.0104167 ]
  distance_from_gamma:  0.027022609
  weight: 24   
  band:
  - # 1
    frequency:     3.3860802470
  - # 2
    frequency:     3.4033219821
  - # 3
    frequency:     4.8409571565
  - # 4
    frequency:    23.3338969550
  - # 5
    frequency:    23.3489500154
  - # 6
    frequency:    23.8181517822
  - # 7
    frequency:    23.8181517822
  - # 8
    frequency:    23.9510830647
  - # 9
    frequency:    23.9510830647
  - # 10
    frequency:    34.1870117719
  - # 11
    frequency:    34.1870117719
  - # 12
    frequency:    34.2622522591
  - # 13
    frequency:    34.2622522591
  - # 14
    frequency:    34.5276004956
  - # 15
    frequency:    34.5448222534
  - # 16
    frequency:    35.6849510573
  - # 17
    frequency:    37.2134448813
  - # 18
    frequency:    37.2134448813
  - # 19
    frequency:    37.5507137149
  - # 20
    frequency:    37.5507137149
  - # 21
    frequency:    38.8418116655
  - # 22
    frequency:    40.7820378995
  - # 23
    frequency:    40.7829578457
  - # 24
    frequency:    40.9391333519

- q-position: [    0.1145833,    0.0104167,    0.0104167 ]
  distance_from_gamma:  0.032895826
  weight: 24   
  band:
  - # 1
    frequency:     4.1261116856
  - # 2
    frequency:     4.1393532052
  - # 3
    frequency:     5.8745434269
  - # 4
    frequency:    23.1939547287
  - # 5
    frequency:    23.2090069290
  - # 6
    frequency:    23.9314764142
  - # 7
    frequency:    23.9314764142
  - # 8
    frequency:    24.0925541034
  - # 9
    frequency:    24.0925541034
  - # 10
    frequency:    34.1080899855
  - # 11
    frequency:    34.1080899855
  - # 12
    frequency:    34.1999210912
  - # 13
    frequency:    34.1999210912
  - # 14
    frequency:    34.6000639866
  - # 15
    frequency:    34.6311253189
  - # 16
    frequency:    35.2526999536
  - # 17
    frequency:    37.1885419873
  - # 18
    frequency:    37.1885419873
  - # 19
    frequency:    37.5191448003
  - # 20
    frequency:    37.5191448003
  - # 21
    frequency:    39.1039290751
  - # 22
    frequency:    40.7242916890
  - # 23
    frequency:    40.7252149611
  - # 24
    frequency:    40.9575432689

- q-position: [    0.1354167,    0.0104167,    0.0104167 ]
  distance_from_gamma:  0.038787009
  weight: 24   
  band:
  - # 1
    frequency:     4.8631167428
  - # 2
    frequency:     4.8732544566
  - # 3
    frequency:     6.9073166961
  - # 4
    frequency:    23.0272280374
  - # 5
    frequency:    23.0422705697
  - # 6
    frequency:    24.0682570763
  - # 7
    frequency:    24.0682570763
  - # 8
    frequency:    24.2566971868
  - # 9
    frequency:    24.2566971868
  - # 10
    frequency:    34.0143247723
  - # 11
    frequency:    34.0143247723
  - # 12
    frequency:    34.1225442476
  - # 13
    frequency:    34.1225442476
  - # 14
    frequency:    34.6057502220
  - # 15
    frequency:    34.7328738992
  - # 16
    frequency:    34.8831385549
  - # 17
    frequency:    37.1605431270
  - # 18
    frequency:    37.1605431270
  - # 19
    frequency:    37.4833063879
  - # 20
    frequency:    37.4833063879
  - # 21
    frequency:    39.3491520148
  - # 22
    frequency:    40.6553209375
  - # 23
    frequency:    40.6562450488
  - # 24
    frequency:    40.9790011544

- q-position: [    0.1562500,    0.0104167,    0.0104167 ]
  distance_from_gamma:  0.044689054
  weight: 24   
  band:
  - # 1
    frequency:     5.5959426795
  - # 2
    frequency:     5.6035704534
  - # 3
    frequency:     7.9366631435
  - # 4
    frequency:    22.8342818044
  - # 5
    frequency:    22.8493020536
  - # 6
    frequency:    24.2272700210
  - # 7
    frequency:    24.2272700210
  - # 8
    frequency:    24.4421913295
  - # 9
    frequency:    24.4421913295
  - # 10
    frequency:    33.9055156733
  - # 11
    frequency:    33.9055156733
  - # 12
    frequency:    34.0297812602
  - # 13
    frequency:    34.0297812602
  - # 14
    frequency:    34.2396356486
  - # 15
    frequency:    34.8491855079
  - # 16
    frequency:    34.8802895697
  - # 17
    frequency:    37.1302995665
  - # 18
    frequency:    37.1302995665
  - # 19
    frequency:    37.4441639685
  - # 20
    frequency:    37.4441639685
  - # 21
    frequency:    39.5778020549
  - # 22
    frequency:    40.5753042425
  - # 23
    frequency:    40.5762277927
  - # 24
    frequency:    41.0031675345

- q-position: [    0.1770833,    0.0104167,    0.0104167 ]
  distance_from_gamma:  0.050598160
  weight: 24   
  band:
  - # 1
    frequency:     6.3236656708
  - # 2
    frequency:     6.3291928508
  - # 3
    frequency:     8.9607559853
  - # 4
    frequency:    22.6157138858
  - # 5
    frequency:    22.6306953980
  - # 6
    frequency:    24.4070997654
  - # 7
    frequency:    24.4070997654
  - # 8
    frequency:    24.6475441367
  - # 9
    frequency:    24.6475441367
  - # 10
    frequency:    33.7503841162
  - # 11
    frequency:    33.7815756891
  - # 12
    frequency:    33.7815756891
  - # 13
    frequency:    33.9213658217
  - # 14
    frequency:    33.9213658217
  - # 15
    frequency:    34.9791044069
  - # 16
    frequency:    34.9944321409
  - # 17
    frequency:    37.0986731557
  - # 18
    frequency:    37.0986731557
  - # 19
    frequency:    37.4027255982
  - # 20
    frequency:    37.4027255982
  - # 21
    frequency:    39.7902200544
  - # 22
    frequency:    40.4844511545
  - # 23
    frequency:    40.4853732647
  - # 24
    frequency:    41.0296545062

- q-position: [    0.1979167,    0.0104167,    0.0104167 ]
  distance_from_gamma:  0.056512113
  weight: 24   
  band:
  - # 1
    frequency:     7.0454618942
  - # 2
    frequency:     7.0491818367
  - # 3
    frequency:     9.9781672369
  - # 4
    frequency:    22.3721394888
  - # 5
    frequency:    22.3870620945
  - # 6
    frequency:    24.6061445630
  - # 7
    frequency:    24.6061445630
  - # 8
    frequency:    24.8710990121
  - # 9
    frequency:    24.8710990121
  - # 10
    frequency:    33.2309617421
  - # 11
    frequency:    33.6425837430
  - # 12
    frequency:    33.6425837430
  - # 13
    frequency:    33.7971610032
  - # 14
    frequency:    33.7971610032
  - # 15
    frequency:    35.1216224582
  - # 16
    frequency:    35.1315093294
  - # 17
    frequency:    37.0664938604
  - # 18
    frequency:    37.0664938604
  - # 19
    frequency:    37.3599971017
  - # 20
    frequency:    37.3599971017
  - # 21
    frequency:    39.9867658258
  - # 22
    frequency:    40.3830026665
  - # 23
    frequency:    40.3839227731
  - # 24
    frequency:    41.0580285624

- q-position: [    0.2187500,    0.0104167,    0.0104167 ]
  distance_from_gamma:  0.062429534
  weight: 24   
  band:
  - # 1
    frequency:     7.7605585140
  - # 2
    frequency:     7.7626890232
  - # 3
    frequency:    10.9876943047
  - # 4
    frequency:    22.1041788408
  - # 5
    frequency:    22.1190189005
  - # 6
    frequency:    24.8226171975
  - # 7
    frequency:    24.8226171975
  - # 8
    frequency:    25.1110374182
  - # 9
    frequency:    25.1110374182
  - # 10
    frequency:    32.6889286798
  - # 11
    frequency:    33.4888364236
  - # 12
    frequency:    33.4888364236
  - # 13
    frequency:    33.6572156185
  - # 14
    frequency:    33.6572156185
  - # 15
    frequency:    35.2756971204
  - # 16
    frequency:    35.2828556748
  - # 17
    frequency:    37.0345236717
  - # 18
    frequency:    37.0345236717
  - # 19
    frequency:    37.3169401405
  - # 20
    frequency:    37.3169401405
  - # 21
    frequency:    40.1678181036
  - # 22
    frequency:    40.2712317355
  - # 23
    frequency:    40.2721495211
  - # 24
    frequency:    41.0878139325

- q-position: [    0.2395833,    0.0104167,    0.0104167 ]
  distance_from_gamma:  0.068349524
  weight: 24   
  band:
  - # 1
    frequency:     8.4682125606
  - # 2
    frequency:     8.4689205802
  - # 3
    frequency:    11.9882753552
  - # 4
    frequency:    21.8124482715
  - # 5
    frequency:    21.8271790086
  - # 6
    frequency:    25.0545382891
  - # 7
    frequency:    25.0545382891
  - # 8
    frequency:    25.3653734770
  - # 9
    frequency:    25.3653734770
  - # 10
    frequency:    32.1258652224
  - # 11
    frequency:    33.3208986975
  - # 12
    frequency:    33.3208986975
  - # 13
    frequency:    33.5018197154
  - # 14
    frequency:    33.5018197154
  - # 15
    frequency:    35.4402663133
  - # 16
    frequency:    35.4457872323
  - # 17
    frequency:    37.0034298415
  - # 18
    frequency:    37.0034298415
  - # 19
    frequency:    37.2744369743
  - # 20
    frequency:    37.2744369743
  - # 21
    frequency:    40.1494438187
  - # 22
    frequency:    40.1503592075
  - # 23
    frequency:    40.3337746776
  - # 24
    frequency:    41.1184962408

- q-position: [    0.2604167,    0.0104167,    0.0104167 ]
  distance_from_gamma:  0.074271467
  weight: 24   
  band:
  - # 1
    frequency:     9.1671182563
  - # 2
    frequency:     9.1677010082
  - # 3
    frequency:    12.9789451556
  - # 4
    frequency:    21.4975544970
  - # 5
    frequency:    21.5121463857
  - # 6
    frequency:    25.2997183186
  - # 7
    frequency:    25.2997183186
  - # 8
    frequency:    25.6319371750
  - # 9
    frequency:    25.6319371750
  - # 10
    frequency:    31.5422971598
  - # 11
    frequency:    33.1396557837
  - # 12
    frequency:    33.1396557837
  - # 13
    frequency:    33.3315591437
  - # 14
    frequency:    33.3315591437
  - # 15
    frequency:    35.6142602496
  - # 16
    frequency:    35.6186893145
  - # 17
    frequency:    36.9737689474
  - # 18
    frequency:    36.9737689474
  - # 19
    frequency:    37.2332649239
  - # 20
    frequency:    37.2332649239
  - # 21
    frequency:    40.0179774096
  - # 22
    frequency:    40.0188905991
  - # 23
    frequency:    40.4850526096
  - # 24
    frequency:    41.1495263787

- q-position: [    0.2812500,    0.0104167,    0.0104167 ]
  distance_from_gamma:  0.080194932
  weight: 24   
  band:
  - # 1
    frequency:     9.8565490704
  - # 2
    frequency:     9.8583158600
  - # 3
    frequency:    13.9588108492
  - # 4
    frequency:    21.1600916589
  - # 5
    frequency:    21.1745128376
  - # 6
    frequency:    25.5557230363
  - # 7
    frequency:    25.5557230363
  - # 8
    frequency:    25.9083407760
  - # 9
    frequency:    25.9083407760
  - # 10
    frequency:    30.9384619561
  - # 11
    frequency:    32.9463717058
  - # 12
    frequency:    32.9463717058
  - # 13
    frequency:    33.1473723259
  - # 14
    frequency:    33.1473723259
  - # 15
    frequency:    35.7966105716
  - # 16
    frequency:    35.8002607278
  - # 17
    frequency:    36.9459816659
  - # 18
    frequency:    36.9459816659
  - # 19
    frequency:    37.1940820932
  - # 20
    frequency:    37.1940820932
  - # 21
    frequency:    39.8772045576
  - # 22
    frequency:    39.8781160747
  - # 23
    frequency:    40.6220884767
  - # 24
    frequency:    41.1803245202

- q-position: [    0.3020833,    0.0104167,    0.0104167 ]
  distance_from_gamma:  0.086119603
  weight: 24   
  band:
  - # 1
    frequency:    10.5364995085
  - # 2
    frequency:    10.5393616674
  - # 3
    frequency:    14.9270381678
  - # 4
    frequency:    20.8006405572
  - # 5
    frequency:    20.8148572418
  - # 6
    frequency:    25.8198145373
  - # 7
    frequency:    25.8198145373
  - # 8
    frequency:    26.1919203505
  - # 9
    frequency:    26.1919203505
  - # 10
    frequency:    30.3145049247
  - # 11
    frequency:    32.7427641009
  - # 12
    frequency:    32.7427641009
  - # 13
    frequency:    32.9506166978
  - # 14
    frequency:    32.9506166978
  - # 15
    frequency:    35.9862572524
  - # 16
    frequency:    35.9893257871
  - # 17
    frequency:    36.9203967358
  - # 18
    frequency:    36.9203967358
  - # 19
    frequency:    37.1574242041
  - # 20
    frequency:    37.1574242041
  - # 21
    frequency:    39.7275313531
  - # 22
    frequency:    39.7284421294
  - # 23
    frequency:    40.7453385976
  - # 24
    frequency:    41.2102842178

- q-position: [    0.3229167,    0.0104167,    0.0104167 ]
  distance_from_gamma:  0.092045249
  weight: 24   
  band:
  - # 1
    frequency:    11.2062721922
  - # 2
    frequency:    11.2101543133
  - # 3
    frequency:    15.8828433794
  - # 4
    frequency:    20.4197695022
  - # 5
    frequency:    20.4337463805
  - # 6
    frequency:    26.0888566972
  - # 7
    frequency:    26.0888566972
  - # 8
    frequency:    26.4796400481
  - # 9
    frequency:    26.4796400481
  - # 10
    frequency:    29.6705458508
  - # 11
    frequency:    32.5311097395
  - # 12
    frequency:    32.5311097395
  - # 13
    frequency:    32.7431578585
  - # 14
    frequency:    32.7431578585
  - # 15
    frequency:    36.1821537450
  - # 16
    frequency:    36.1847741352
  - # 17
    frequency:    36.8972417415
  - # 18
    frequency:    36.8972417415
  - # 19
    frequency:    37.1237108827
  - # 20
    frequency:    37.1237108827
  - # 21
    frequency:    39.5693983600
  - # 22
    frequency:    39.5703098253
  - # 23
    frequency:    40.8552792054
  - # 24
    frequency:    41.2387765211

- q-position: [    0.3437500,    0.0104167,    0.0104167 ]
  distance_from_gamma:  0.097971692
  weight: 24   
  band:
  - # 1
    frequency:    11.8651839608
  - # 2
    frequency:    11.8700204790
  - # 3
    frequency:    16.8254885052
  - # 4
    frequency:    20.0180362551
  - # 5
    frequency:    20.0317368469
  - # 6
    frequency:    26.3591686338
  - # 7
    frequency:    26.3591686338
  - # 8
    frequency:    26.7679402201
  - # 9
    frequency:    26.7679402201
  - # 10
    frequency:    29.0067064236
  - # 11
    frequency:    32.3144009373
  - # 12
    frequency:    32.3144009373
  - # 13
    frequency:    32.5275016967
  - # 14
    frequency:    32.5275016967
  - # 15
    frequency:    36.3832708263
  - # 16
    frequency:    36.3855384421
  - # 17
    frequency:    36.8766581087
  - # 18
    frequency:    36.8766581087
  - # 19
    frequency:    37.0932587581
  - # 20
    frequency:    37.0932587581
  - # 21
    frequency:    39.4032809804
  - # 22
    frequency:    39.4041951722
  - # 23
    frequency:    40.9524065353
  - # 24
    frequency:    41.2651540686

- q-position: [    0.3645833,    0.0104167,    0.0104167 ]
  distance_from_gamma:  0.103898796
  weight: 24   
  band:
  - # 1
    frequency:    12.5125647838
  - # 2
    frequency:    12.5182974897
  - # 3
    frequency:    17.7542784442
  - # 4
    frequency:    19.5959906119
  - # 5
    frequency:    19.6093775844
  - # 6
    frequency:    26.6263040099
  - # 7
    frequency:    26.6263040099
  - # 8
    frequency:    27.0525015728
  - # 9
    frequency:    27.0525015728
  - # 10
    frequency:    28.3231233528
  - # 11
    frequency:    32.0965785851
  - # 12
    frequency:    32.0965785851
  - # 13
    frequency:    32.3069991889
  - # 14
    frequency:    32.3069991889
  - # 15
    frequency:    36.5885995126
  - # 16
    frequency:    36.5905854713
  - # 17
    frequency:    36.8587179850
  - # 18
    frequency:    36.8587179850
  - # 19
    frequency:    37.0662983966
  - # 20
    frequency:    37.0662983966
  - # 21
    frequency:    39.2296897327
  - # 22
    frequency:    39.2306094233
  - # 23
    frequency:    41.0372367984
  - # 24
    frequency:    41.2887551018

- q-position: [    0.3854167,    0.0104167,    0.0104167 ]
  distance_from_gamma:  0.109826454
  weight: 24   
  band:
  - # 1
    frequency:    13.1477571648
  - # 2
    frequency:    13.1543333611
  - # 3
    frequency:    18.6685592271
  - # 4
    frequency:    19.1541772779
  - # 5
    frequency:    19.1672127089
  - # 6
    frequency:    26.8847310810
  - # 7
    frequency:    26.8847310810
  - # 8
    frequency:    27.3278887694
  - # 9
    frequency:    27.3278887694
  - # 10
    frequency:    27.6199554903
  - # 11
    frequency:    31.8828674369
  - # 12
    frequency:    31.8828674369
  - # 13
    frequency:    32.0861646414
  - # 14
    frequency:    32.0861646414
  - # 15
    frequency:    36.7971533433
  - # 16
    frequency:    36.7989124733
  - # 17
    frequency:    36.8434412558
  - # 18
    frequency:    36.8434412558
  - # 19
    frequency:    37.0429923216
  - # 20
    frequency:    37.0429923216
  - # 21
    frequency:    39.0491704278
  - # 22
    frequency:    39.0500992698
  - # 23
    frequency:    41.1103060148
  - # 24
    frequency:    41.3089073599

- q-position: [    0.4062500,    0.0104167,    0.0104167 ]
  distance_from_gamma:  0.115754580
  weight: 24   
  band:
  - # 1
    frequency:    13.7701158252
  - # 2
    frequency:    13.7774869381
  - # 3
    frequency:    18.6931387700
  - # 4
    frequency:    18.7057843546
  - # 5
    frequency:    19.5677169313
  - # 6
    frequency:    26.8973881540
  - # 7
    frequency:    27.1274016096
  - # 8
    frequency:    27.1274016096
  - # 9
    frequency:    27.5870407789
  - # 10
    frequency:    27.5870407789
  - # 11
    frequency:    31.6802144757
  - # 12
    frequency:    31.6802144757
  - # 13
    frequency:    31.8711547232
  - # 14
    frequency:    31.8711547232
  - # 15
    frequency:    36.8308115822
  - # 16
    frequency:    36.8308115822
  - # 17
    frequency:    37.0079702469
  - # 18
    frequency:    37.0095459128
  - # 19
    frequency:    37.0234519520
  - # 20
    frequency:    37.0234519520
  - # 21
    frequency:    38.8623042314
  - # 22
    frequency:    38.8632469230
  - # 23
    frequency:    41.1721696814
  - # 24
    frequency:    41.3249318172

- q-position: [    0.4270833,    0.0104167,    0.0104167 ]
  distance_from_gamma:  0.121683107
  weight: 24   
  band:
  - # 1
    frequency:    14.3790075310
  - # 2
    frequency:    14.3871280496
  - # 3
    frequency:    18.2134181700
  - # 4
    frequency:    18.2256353667
  - # 5
    frequency:    20.4511769728
  - # 6
    frequency:    26.1556360197
  - # 7
    frequency:    27.3452622738
  - # 8
    frequency:    27.3452622738
  - # 9
    frequency:    27.8206329701
  - # 10
    frequency:    27.8206329701
  - # 11
    frequency:    31.4977277103
  - # 12
    frequency:    31.4977277103
  - # 13
    frequency:    31.6704346706
  - # 14
    frequency:    31.6704346706
  - # 15
    frequency:    36.8207908840
  - # 16
    frequency:    36.8207908840
  - # 17
    frequency:    37.0077520176
  - # 18
    frequency:    37.0077520176
  - # 19
    frequency:    37.2201141395
  - # 20
    frequency:    37.2215412971
  - # 21
    frequency:    38.6697075984
  - # 22
    frequency:    38.6706700713
  - # 23
    frequency:    41.2234022504
  - # 24
    frequency:    41.3361462285

- q-position: [    0.4479167,    0.0104167,    0.0104167 ]
  distance_from_gamma:  0.127611979
  weight: 24   
  band:
  - # 1
    frequency:    14.9738109626
  - # 2
    frequency:    14.9826376220
  - # 3
    frequency:    17.7155616112
  - # 4
    frequency:    17.7273117271
  - # 5
    frequency:    21.3184035936
  - # 6
    frequency:    25.3949452104
  - # 7
    frequency:    27.5269531166
  - # 8
    frequency:    27.5269531166
  - # 9
    frequency:    28.0165476166
  - # 10
    frequency:    28.0165476166
  - # 11
    frequency:    31.3467148727
  - # 12
    frequency:    31.3467148727
  - # 13
    frequency:    31.4955523049
  - # 14
    frequency:    31.4955523049
  - # 15
    frequency:    36.8133320086
  - # 16
    frequency:    36.8133320086
  - # 17
    frequency:    36.9959417379
  - # 18
    frequency:    36.9959417379
  - # 19
    frequency:    37.4326763458
  - # 20
    frequency:    37.4339835557
  - # 21
    frequency:    38.4720320723
  - # 22
    frequency:    38.4730217071
  - # 23
    frequency:    41.2645963993
  - # 24
    frequency:    41.3418684564

- q-position: [    0.4687500,    0.0104167,    0.0104167 ]
  distance_from_gamma:  0.133541149
  weight: 24   
  band:
  - # 1
    frequency:    15.5539165537
  - # 2
    frequency:    15.5634077027
  - # 3
    frequency:    17.2001204402
  - # 4
    frequency:    17.2113646516
  - # 5
    frequency:    22.1688994267
  - # 6
    frequency:    24.6155948963
  - # 7
    frequency:    27.6593119325
  - # 8
    frequency:    27.6593119325
  - # 9
    frequency:    28.1601823413
  - # 10
    frequency:    28.1601823413
  - # 11
    frequency:    31.2393226776
  - # 12
    frequency:    31.2393226776
  - # 13
    frequency:    31.3616713450
  - # 14
    frequency:    31.3616713450
  - # 15
    frequency:    36.8083894315
  - # 16
    frequency:    36.8083894315
  - # 17
    frequency:    36.9880526843
  - # 18
    frequency:    36.9880526843
  - # 19
    frequency:    37.6447768968
  - # 20
    frequency:    37.6459877021
  - # 21
    frequency:    38.2699639433
  - # 22
    frequency:    38.2709898187
  - # 23
    frequency:    41.2963620715
  - # 24
    frequency:    41.3414195572

- q-position: [    0.4895833,    0.0104167,    0.0104167 ]
  distance_from_gamma:  0.139470579
  weight: 24   
  band:
  - # 1
    frequency:    16.1187262347
  - # 2
    frequency:    16.1288413483
  - # 3
    frequency:    16.6676530278
  - # 4
    frequency:    16.6783523353
  - # 5
    frequency:    23.0022050634
  - # 6
    frequency:    23.8178985669
  - # 7
    frequency:    27.7296015373
  - # 8
    frequency:    27.7296015373
  - # 9
    frequency:    28.2368662615
  - # 10
    frequency:    28.2368662615
  - # 11
    frequency:    31.1845367468
  - # 12
    frequency:    31.1845367468
  - # 13
    frequency:    31.2869173096
  - # 14
    frequency:    31.2869173096
  - # 15
    frequency:    36.8059277682
  - # 16
    frequency:    36.8059277682
  - # 17
    frequency:    36.9841037248
  - # 18
    frequency:    36.9841037248
  - # 19
    frequency:    37.8555657251
  - # 20
    frequency:    37.8566996289
  - # 21
    frequency:    38.0642237640
  - # 22
    frequency:    38.0652969487
  - # 23
    frequency:    41.3193252729
  - # 24
    frequency:    41.3341266094

- q-position: [    0.0312500,    0.0312500,    0.0104167 ]
  distance_from_gamma:  0.012929003
  weight: 24   
  band:
  - # 1
    frequency:     1.4838248269
  - # 2
    frequency:     1.6130937187
  - # 3
    frequency:     2.4260747126
  - # 4
    frequency:    23.5995652870
  - # 5
    frequency:    23.5995652870
  - # 6
    frequency:    23.6093776818
  - # 7
    frequency:    23.6446169216
  - # 8
    frequency:    23.6446169216
  - # 9
    frequency:    23.7441745579
  - # 10
    frequency:    34.2994592605
  - # 11
    frequency:    34.3527666893
  - # 12
    frequency:    34.3527666893
  - # 13
    frequency:    34.3738017997
  - # 14
    frequency:    34.3805895153
  - # 15
    frequency:    34.3805895153
  - # 16
    frequency:    36.8987037126
  - # 17
    frequency:    36.8987037126
  - # 18
    frequency:    37.2480031842
  - # 19
    frequency:    37.6121103303
  - # 20
    frequency:    37.9408110809
  - # 21
    frequency:    37.9408110809
  - # 22
    frequency:    40.8752882428
  - # 23
    frequency:    40.8812017811
  - # 24
    frequency:    40.9030147723

- q-position: [    0.0520833,    0.0312500,    0.0104167 ]
  distance_from_gamma:  0.017547783
  weight: 48   
  band:
  - # 1
    frequency:     2.0489759508
  - # 2
    frequency:     2.2031205832
  - # 3
    frequency:     3.2571843002
  - # 4
    frequency:    23.5426179832
  - # 5
    frequency:    23.5877335150
  - # 6
    frequency:    23.6169613706
  - # 7
    frequency:    23.6370519415
  - # 8
    frequency:    23.7119590506
  - # 9
    frequency:    23.8407972406
  - # 10
    frequency:    34.2486828554
  - # 11
    frequency:    34.3119694317
  - # 12
    frequency:    34.3624875916
  - # 13
    frequency:    34.3711444918
  - # 14
    frequency:    34.3826652920
  - # 15
    frequency:    34.4166179783
  - # 16
    frequency:    36.5184759667
  - # 17
    frequency:    36.8980155845
  - # 18
    frequency:    37.2211290174
  - # 19
    frequency:    37.6120419664
  - # 20
    frequency:    37.9202610125
  - # 21
    frequency:    38.2531850356
  - # 22
    frequency:    40.8521896744
  - # 23
    frequency:    40.8606057416
  - # 24
    frequency:    40.9079661033

- q-position: [    0.0729167,    0.0312500,    0.0104167 ]
  distance_from_gamma:  0.022783175
  weight: 48   
  band: