       N       E                     dE             d eps       ncg     rms          rms(c)
DAV:   1    -0.770080123509E+02   -0.77008E+02   -0.12064E+05  3344   0.998E+02
DAV:   2    -0.128341016308E+04   -0.12064E+04   -0.11545E+04  4000   0.253E+02
DAV:   3    -0.133644317390E+04   -0.53033E+02   -0.52461E+02  4464   0.491E+01
DAV:   4    -0.133750993595E+04   -0.10668E+01   -0.10632E+01  4512   0.710E+00
DAV:   5    -0.133754237465E+04   -0.32439E-01   -0.32410E-01  4432   0.122E+00    0.127E+02
RMM:   6    -0.779474294769E+03    0.55807E+03   -0.33990E+02  3328   0.341E+01    0.678E+01
RMM:   7    -0.579417157638E+03    0.20006E+03   -0.49152E+02  3328   0.402E+01    0.827E+00
RMM:   8    -0.580428158087E+03   -0.10110E+01   -0.26703E+00  3328   0.352E+00    0.252E+00
RMM:   9    -0.580558668173E+03   -0.13051E+00   -0.44114E-01  3328   0.152E+00    0.371E-01
RMM:  10    -0.580562591058E+03   -0.39229E-02   -0.29225E-02  3328   0.369E-01    0.209E-01
RMM:  11    -0.580562863056E+03   -0.27200E-03   -0.11489E-03  3328   0.848E-02    0.138E-01
RMM:  12    -0.580562534482E+03    0.32857E-03   -0.86123E-04  3328   0.642E-02    0.190E-02
RMM:  13    -0.580562530027E+03    0.44555E-05   -0.41148E-05  3328   0.136E-02    0.256E-03
RMM:  14    -0.580562529986E+03    0.40658E-07   -0.10547E-06  2304   0.235E-03
   1 F= -.52649444E+03 E0= -.52649444E+03  d E =0.000000E+00  mag=     0.0000
 Linear response reoptimize wavefunctions
DAV:   1    -0.580562532023E+03   -0.54068E+02   -0.51250E-07  3744   0.175E-03
DAV:   2    -0.580562532024E+03   -0.13109E-08   -0.13779E-08  3152   0.217E-04
DAV:   3    -0.580562532025E+03   -0.56809E-09   -0.56002E-10  2928   0.568E-05
 Linear response DOF=            1
 Linear response progress:
  Degree of freedom:   1/  1
       N       E                     dE             d eps       ncg     rms          rms(c)
RMM:   1    -0.147840484934E+00   -0.14784E+00    0.19869E-02 14086   0.643E-01
RMM:   2    -0.126200592050E+00    0.21640E-01   -0.65734E-03  8245   0.146E-01    0.195E-01
RMM:   3    -0.125956560669E+00    0.24403E-03   -0.94876E-04  8473   0.458E-02    0.979E-02
RMM:   4    -0.126278331508E+00   -0.32177E-03   -0.25902E-04  8518   0.252E-02    0.289E-02
RMM:   5    -0.126387016593E+00   -0.10869E-03   -0.21541E-05  8793   0.730E-03    0.697E-03
RMM:   6    -0.126369138866E+00    0.17878E-04   -0.50428E-06  8951   0.190E-03    0.139E-03
RMM:   7    -0.126362712437E+00    0.64264E-05   -0.78944E-06  9510   0.553E-04    0.388E-04
RMM:   8    -0.126361831331E+00    0.88111E-06   -0.84680E-06 10301   0.317E-04    0.130E-04
 Linear response finished
