unknown system                          
            1
     7.023774    0.000000    0.000000
     0.000000    7.023774    0.000000
     0.000000    0.000000    7.023774
   C 
  64
Direct configuration=     1
   0.37834800  0.37834800  0.37834800
   0.87834800  0.37834800  0.37834800
   0.37834800  0.87834800  0.37834800
   0.87834800  0.87834800  0.37834800
   0.37834800  0.37834800  0.87834800
   0.87834800  0.37834800  0.87834800
   0.37834800  0.87834800  0.87834800
   0.87834800  0.87834800  0.87834800
   0.50334750  0.25334800  0.50334750
   0.00334750  0.25334800  0.50334750
   0.50334750  0.75334800  0.50334750
   0.00334750  0.75334800  0.50334750
   0.50334750  0.25334800  0.00334750
   0.00334750  0.25334800  0.00334750
   0.50334750  0.75334800  0.00334750
   0.00334750  0.75334800  0.00334750
   0.25334800  0.25334800  0.25334800
   0.75334800  0.25334800  0.25334800
   0.25334800  0.75334800  0.25334800
   0.75334800  0.75334800  0.25334800
   0.25334800  0.25334800  0.75334800
   0.75334800  0.25334800  0.75334800
   0.25334800  0.75334800  0.75334800
   0.75334800  0.75334800  0.75334800
   0.50334750  0.50334750  0.25334800
   0.00334750  0.50334750  0.25334800
   0.50334750  0.00334750  0.25334800
   0.00334750  0.00334750  0.25334800
   0.50334750  0.50334750  0.75334800
   0.00334750  0.50334750  0.75334800
   0.50334750  0.00334750  0.75334800
   0.00334750  0.00334750  0.75334800
   0.25334800  0.50334750  0.50334750
   0.75334800  0.50334750  0.50334750
   0.25334800  0.00334750  0.50334750
   0.75334800  0.00334750  0.50334750
   0.25334800  0.50334750  0.00334750
   0.75334800  0.50334750  0.00334750
   0.25334800  0.00334750  0.00334750
   0.75334800  0.00334750  0.00334750
   0.37834800  0.12834800  0.12834800
   0.87834800  0.12834800  0.12834800
   0.37834800  0.62834800  0.12834800
   0.87834800  0.62834800  0.12834800
   0.37834800  0.12834800  0.62834800
   0.87834800  0.12834800  0.62834800
   0.37834800  0.62834800  0.62834800
   0.87834800  0.62834800  0.62834800
   0.12834800  0.12834800  0.37834800
   0.62834800  0.12834800  0.37834800
   0.12834800  0.62834800  0.37834800
   0.62834800  0.62834800  0.37834800
   0.12834800  0.12834800  0.87834800
   0.62834800  0.12834800  0.87834800
   0.12834800  0.62834800  0.87834800
   0.62834800  0.62834800  0.87834800
   0.12834800  0.37834800  0.12834800
   0.62834800  0.37834800  0.12834800
   0.12834800  0.87834800  0.12834800
   0.62834800  0.87834800  0.12834800
   0.12834800  0.37834800  0.62834800
   0.62834800  0.37834800  0.62834800
   0.12834800  0.87834800  0.62834800
   0.62834800  0.87834800  0.62834800
