   4   4   1   0
  0.1028436E+02  0.2467291E-09  0.2467292E-09  0.7803073E-09  0.1500000E-16
   1.0000000000000000E-004
  CAR 
 unknown system                          
     27.03438021    -15.45068757  301      6.80807882      1.00000000
    -15.451  0.0000E+00  0.0000E+00  0.0000E+00  0.0000E+00
    -15.309  0.0000E+00  0.0000E+00  0.0000E+00  0.0000E+00
    -15.167  0.0000E+00  0.0000E+00  0.0000E+00  0.0000E+00
    -15.026  0.0000E+00  0.0000E+00  0.0000E+00  0.0000E+00
    -14.884  0.0000E+00  0.0000E+00  0.0000E+00  0.0000E+00
    -14.743  0.0000E+00  0.0000E+00  0.0000E+00  0.0000E+00
    -14.601  0.0000E+00  0.0000E+00  0.0000E+00  0.0000E+00
    -14.459  0.0000E+00  0.0000E+00  0.0000E+00  0.0000E+00
    -14.318  0.0000E+00  0.0000E+00  0.0000E+00  0.0000E+00
    -14.176  0.0000E+00  0.0000E+00  0.0000E+00  0.0000E+00
    -14.035  0.0000E+00  0.0000E+00  0.0000E+00  0.0000E+00
    -13.893  0.0000E+00  0.0000E+00  0.0000E+00  0.0000E+00
    -13.751  0.0000E+00  0.0000E+00  0.0000E+00  0.0000E+00
    -13.610  0.0000E+00  0.0000E+00  0.0000E+00  0.0000E+00
    -13.468  0.1475E-03  0.1475E-03  0.2532E-05  0.2532E-05
    -13.326  0.7950E-03  0.7950E-03  0.7660E-04  0.7660E-04
    -13.185  0.1085E-02  0.1085E-02  0.2100E-03  0.2100E-03
    -13.043  0.1356E-02  0.1356E-02  0.3810E-03  0.3810E-03
    -12.902  0.1633E-02  0.1633E-02  0.5946E-03  0.5946E-03
    -12.760  0.1859E-02  0.1859E-02  0.8413E-03  0.8413E-03
    -12.618  0.2133E-02  0.2133E-02  0.1124E-02  0.1124E-02
    -12.477  0.2557E-02  0.2557E-02  0.1452E-02  0.1452E-02
    -12.335  0.3002E-02  0.3002E-02  0.1849E-02  0.1849E-02
    -12.193  0.2995E-02  0.2995E-02  0.2273E-02  0.2273E-02
    -12.052  0.3020E-02  0.3020E-02  0.2697E-02  0.2697E-02
    -11.910  0.3004E-02  0.3004E-02  0.3124E-02  0.3124E-02
    -11.769  0.2999E-02  0.2999E-02  0.3549E-02  0.3549E-02
    -11.627  0.3024E-02  0.3024E-02  0.3975E-02  0.3975E-02
    -11.485  0.3019E-02  0.3019E-02  0.4403E-02  0.4403E-02
    -11.344  0.3030E-02  0.3030E-02  0.4832E-02  0.4832E-02
    -11.202  0.3039E-02  0.3039E-02  0.5261E-02  0.5261E-02
    -11.061  0.3037E-02  0.3037E-02  0.5692E-02  0.5692E-02
    -10.919  0.3036E-02  0.3036E-02  0.6121E-02  0.6121E-02
    -10.777  0.3056E-02  0.3056E-02  0.6553E-02  0.6553E-02
    -10.636  0.3073E-02  0.3073E-02  0.6987E-02  0.6987E-02
    -10.494  0.3071E-02  0.3071E-02  0.7422E-02  0.7422E-02
    -10.352  0.3066E-02  0.3066E-02  0.7856E-02  0.7856E-02
    -10.211  0.3076E-02  0.3076E-02  0.8291E-02  0.8291E-02
    -10.069  0.3093E-02  0.3093E-02  0.8728E-02  0.8728E-02
     -9.928  0.3112E-02  0.3112E-02  0.9167E-02  0.9167E-02
     -9.786  0.3119E-02  0.3119E-02  0.9609E-02  0.9609E-02
     -9.644  0.3117E-02  0.3117E-02  0.1005E-01  0.1005E-01
     -9.503  0.3129E-02  0.3129E-02  0.1049E-01  0.1049E-01
     -9.361  0.3145E-02  0.3145E-02  0.1094E-01  0.1094E-01
     -9.220  0.3164E-02  0.3164E-02  0.1138E-01  0.1138E-01
     -9.078  0.3184E-02  0.3184E-02  0.1183E-01  0.1183E-01
     -8.936  0.3201E-02  0.3201E-02  0.1228E-01  0.1228E-01
     -8.795  0.3218E-02  0.3218E-02  0.1274E-01  0.1274E-01
     -8.653  0.3247E-02  0.3247E-02  0.1320E-01  0.1320E-01
     -8.511  0.3289E-02  0.3289E-02  0.1366E-01  0.1366E-01
     -8.370  0.3356E-02  0.3356E-02  0.1413E-01  0.1413E-01
     -8.228  0.3449E-02  0.3449E-02  0.1461E-01  0.1461E-01
     -8.087  0.3745E-02  0.3745E-02  0.1511E-01  0.1511E-01
     -7.945  0.3974E-02  0.3974E-02  0.1567E-01  0.1567E-01
     -7.803  0.3913E-02  0.3913E-02  0.1623E-01  0.1623E-01
     -7.662  0.4320E-02  0.4320E-02  0.1680E-01  0.1680E-01
     -7.520  0.3915E-02  0.3915E-02  0.1739E-01  0.1739E-01
     -7.379  0.3208E-02  0.3208E-02  0.1795E-01  0.1795E-01
     -7.237  0.2479E-02  0.2479E-02  0.1835E-01  0.1835E-01
     -7.095  0.2300E-02  0.2300E-02  0.1869E-01  0.1869E-01
     -6.954  0.2099E-02  0.2099E-02  0.1899E-01  0.1899E-01
     -6.812  0.1629E-02  0.1629E-02  0.1926E-01  0.1926E-01
     -6.670  0.1295E-02  0.1295E-02  0.1947E-01  0.1947E-01
     -6.529  0.1652E-02  0.1652E-02  0.1966E-01  0.1966E-01
     -6.387  0.2412E-02  0.2412E-02  0.1999E-01  0.1999E-01
     -6.246  0.2677E-02  0.2677E-02  0.2035E-01  0.2035E-01
     -6.104  0.3064E-02  0.3064E-02  0.2075E-01  0.2075E-01
     -5.962  0.3520E-02  0.3520E-02  0.2122E-01  0.2122E-01
     -5.821  0.3092E-02  0.3092E-02  0.2169E-01  0.2169E-01
     -5.679  0.3925E-02  0.3925E-02  0.2218E-01  0.2218E-01
     -5.538  0.4938E-02  0.4938E-02  0.2282E-01  0.2282E-01
     -5.396  0.4283E-02  0.4283E-02  0.2346E-01  0.2346E-01
     -5.254  0.4224E-02  0.4224E-02  0.2406E-01  0.2406E-01
     -5.113  0.3705E-02  0.3705E-02  0.2464E-01  0.2464E-01
     -4.971  0.3385E-02  0.3385E-02  0.2513E-01  0.2513E-01
     -4.829  0.3257E-02  0.3257E-02  0.2560E-01  0.2560E-01
     -4.688  0.3116E-02  0.3116E-02  0.2605E-01  0.2605E-01
     -4.546  0.2984E-02  0.2984E-02  0.2648E-01  0.2648E-01
     -4.405  0.2889E-02  0.2889E-02  0.2690E-01  0.2690E-01
     -4.263  0.2839E-02  0.2839E-02  0.2730E-01  0.2730E-01
     -4.121  0.2805E-02  0.2805E-02  0.2770E-01  0.2770E-01
     -3.980  0.2690E-02  0.2690E-02  0.2809E-01  0.2809E-01
     -3.838  0.2896E-02  0.2896E-02  0.2848E-01  0.2848E-01
     -3.696  0.3351E-02  0.3351E-02  0.2892E-01  0.2892E-01
     -3.555  0.3505E-02  0.3505E-02  0.2943E-01  0.2943E-01
     -3.413  0.3550E-02  0.3550E-02  0.2992E-01  0.2992E-01
     -3.272  0.3618E-02  0.3618E-02  0.3043E-01  0.3043E-01
     -3.130  0.3609E-02  0.3609E-02  0.3095E-01  0.3095E-01
     -2.988  0.3572E-02  0.3572E-02  0.3145E-01  0.3145E-01
     -2.847  0.3723E-02  0.3723E-02  0.3197E-01  0.3197E-01
     -2.705  0.3947E-02  0.3947E-02  0.3251E-01  0.3251E-01
     -2.564  0.4168E-02  0.4168E-02  0.3309E-01  0.3309E-01
     -2.422  0.4372E-02  0.4372E-02  0.3369E-01  0.3369E-01
     -2.280  0.4479E-02  0.4479E-02  0.3432E-01  0.3432E-01
     -2.139  0.4551E-02  0.4551E-02  0.3496E-01  0.3496E-01
     -1.997  0.4646E-02  0.4646E-02  0.3561E-01  0.3561E-01
     -1.855  0.4787E-02  0.4787E-02  0.3628E-01  0.3628E-01
     -1.714  0.4889E-02  0.4889E-02  0.3696E-01  0.3696E-01
     -1.572  0.5031E-02  0.5031E-02  0.3766E-01  0.3766E-01
     -1.431  0.5359E-02  0.5359E-02  0.3840E-01  0.3840E-01
     -1.289  0.5748E-02  0.5748E-02  0.3918E-01  0.3918E-01
     -1.147  0.6040E-02  0.6040E-02  0.4002E-01  0.4002E-01
     -1.006  0.5923E-02  0.5923E-02  0.4087E-01  0.4087E-01
     -0.864  0.5616E-02  0.5616E-02  0.4169E-01  0.4169E-01
     -0.723  0.5301E-02  0.5301E-02  0.4246E-01  0.4246E-01
     -0.581  0.5209E-02  0.5209E-02  0.4320E-01  0.4320E-01
     -0.439  0.5891E-02  0.5891E-02  0.4399E-01  0.4399E-01
     -0.298  0.6835E-02  0.6835E-02  0.4489E-01  0.4489E-01
     -0.156  0.7433E-02  0.7433E-02  0.4591E-01  0.4591E-01
     -0.014  0.7671E-02  0.7671E-02  0.4698E-01  0.4698E-01
      0.127  0.8388E-02  0.8388E-02  0.4811E-01  0.4811E-01
      0.269  0.8885E-02  0.8885E-02  0.4933E-01  0.4933E-01
      0.410  0.9508E-02  0.9508E-02  0.5065E-01  0.5065E-01
      0.552  0.9358E-02  0.9358E-02  0.5200E-01  0.5200E-01
      0.694  0.7706E-02  0.7706E-02  0.5320E-01  0.5320E-01
      0.835  0.7422E-02  0.7422E-02  0.5424E-01  0.5424E-01
      0.977  0.6923E-02  0.6924E-02  0.5529E-01  0.5529E-01
      1.118  0.6399E-02  0.6399E-02  0.5620E-01  0.5620E-01
      1.260  0.6713E-02  0.6713E-02  0.5711E-01  0.5711E-01
      1.402  0.6280E-02  0.6280E-02  0.5802E-01  0.5802E-01
      1.543  0.6410E-02  0.6410E-02  0.5895E-01  0.5895E-01
      1.685  0.6854E-02  0.6854E-02  0.5987E-01  0.5987E-01
      1.827  0.6179E-02  0.6179E-02  0.6078E-01  0.6078E-01
      1.968  0.6225E-02  0.6225E-02  0.6166E-01  0.6166E-01
      2.110  0.5939E-02  0.5939E-02  0.6251E-01  0.6251E-01
      2.251  0.6066E-02  0.6066E-02  0.6335E-01  0.6335E-01
      2.393  0.5931E-02  0.5931E-02  0.6421E-01  0.6421E-01
      2.535  0.5931E-02  0.5931E-02  0.6505E-01  0.6505E-01
      2.676  0.6086E-02  0.6086E-02  0.6590E-01  0.6590E-01
      2.818  0.6154E-02  0.6154E-02  0.6676E-01  0.6676E-01
      2.960  0.6008E-02  0.6008E-02  0.6764E-01  0.6764E-01
      3.101  0.5878E-02  0.5878E-02  0.6847E-01  0.6847E-01
      3.243  0.5871E-02  0.5871E-02  0.6931E-01  0.6931E-01
      3.384  0.5746E-02  0.5746E-02  0.7013E-01  0.7013E-01
      3.526  0.5747E-02  0.5747E-02  0.7095E-01  0.7095E-01
      3.668  0.5634E-02  0.5634E-02  0.7175E-01  0.7175E-01
      3.809  0.5442E-02  0.5442E-02  0.7254E-01  0.7254E-01
      3.951  0.4177E-02  0.4177E-02  0.7325E-01  0.7325E-01
      4.092  0.3257E-02  0.3257E-02  0.7374E-01  0.7374E-01
      4.234  0.3246E-02  0.3246E-02  0.7420E-01  0.7420E-01
      4.376  0.3250E-02  0.3250E-02  0.7466E-01  0.7466E-01
      4.517  0.3370E-02  0.3370E-02  0.7513E-01  0.7513E-01
      4.659  0.3458E-02  0.3458E-02  0.7562E-01  0.7562E-01
      4.801  0.3591E-02  0.3591E-02  0.7611E-01  0.7611E-01
      4.942  0.4975E-02  0.4975E-02  0.7672E-01  0.7672E-01
      5.084  0.3968E-02  0.3968E-02  0.7737E-01  0.7737E-01
      5.225  0.3032E-02  0.3032E-02  0.7785E-01  0.7785E-01
      5.367  0.2524E-02  0.2524E-02  0.7824E-01  0.7824E-01
      5.509  0.2121E-02  0.2121E-02  0.7857E-01  0.7857E-01
      5.650  0.1771E-02  0.1771E-02  0.7884E-01  0.7884E-01
      5.792  0.1549E-02  0.1549E-02  0.7908E-01  0.7908E-01
      5.933  0.1312E-02  0.1312E-02  0.7928E-01  0.7928E-01
      6.075  0.1152E-02  0.1152E-02  0.7945E-01  0.7945E-01
      6.217  0.1029E-02  0.1029E-02  0.7961E-01  0.7961E-01
      6.358  0.8946E-03  0.8946E-03  0.7975E-01  0.7975E-01
      6.500  0.1186E-02  0.1186E-02  0.7988E-01  0.7988E-01
      6.642  0.3918E-03  0.3918E-03  0.7997E-01  0.7997E-01
      6.783  0.7031E-04  0.7031E-04  0.8000E-01  0.8000E-01
      6.925  0.7939E-04  0.7939E-04  0.8001E-01  0.8001E-01
      7.066  0.1880E-03  0.1880E-03  0.8002E-01  0.8002E-01
      7.208  0.2999E-03  0.2999E-03  0.8006E-01  0.8006E-01
      7.350  0.4145E-03  0.4145E-03  0.8011E-01  0.8011E-01
      7.491  0.5337E-03  0.5337E-03  0.8018E-01  0.8018E-01
      7.633  0.6487E-03  0.6487E-03  0.8026E-01  0.8026E-01
      7.774  0.7797E-03  0.7797E-03  0.8036E-01  0.8036E-01
      7.916  0.9368E-03  0.9368E-03  0.8048E-01  0.8048E-01
      8.058  0.1078E-02  0.1078E-02  0.8063E-01  0.8063E-01
      8.199  0.1274E-02  0.1274E-02  0.8079E-01  0.8079E-01
      8.341  0.2022E-02  0.2022E-02  0.8103E-01  0.8103E-01
      8.483  0.2578E-02  0.2578E-02  0.8134E-01  0.8134E-01
      8.624  0.5735E-02  0.5735E-02  0.8190E-01  0.8190E-01
      8.766  0.5745E-02  0.5745E-02  0.8271E-01  0.8271E-01
      8.907  0.4647E-02  0.4647E-02  0.8347E-01  0.8347E-01
      9.049  0.3656E-02  0.3656E-02  0.8404E-01  0.8404E-01
      9.191  0.3467E-02  0.3467E-02  0.8453E-01  0.8453E-01
      9.332  0.3411E-02  0.3411E-02  0.8502E-01  0.8502E-01
      9.474  0.3308E-02  0.3308E-02  0.8550E-01  0.8550E-01
      9.616  0.3143E-02  0.3143E-02  0.8595E-01  0.8595E-01
      9.757  0.3079E-02  0.3079E-02  0.8639E-01  0.8639E-01
      9.899  0.3014E-02  0.3014E-02  0.8683E-01  0.8683E-01
     10.040  0.2858E-02  0.2858E-02  0.8724E-01  0.8724E-01
     10.182  0.2647E-02  0.2647E-02  0.8763E-01  0.8763E-01
     10.324  0.2525E-02  0.2525E-02  0.8800E-01  0.8800E-01
     10.465  0.2424E-02  0.2424E-02  0.8835E-01  0.8835E-01
     10.607  0.2336E-02  0.2336E-02  0.8868E-01  0.8868E-01
     10.748  0.2274E-02  0.2274E-02  0.8901E-01  0.8901E-01
     10.890  0.2217E-02  0.2217E-02  0.8933E-01  0.8933E-01
     11.032  0.2164E-02  0.2164E-02  0.8964E-01  0.8964E-01
     11.173  0.2112E-02  0.2112E-02  0.8994E-01  0.8994E-01
     11.315  0.2062E-02  0.2062E-02  0.9024E-01  0.9024E-01
     11.457  0.2007E-02  0.2007E-02  0.9052E-01  0.9052E-01
     11.598  0.1952E-02  0.1952E-02  0.9080E-01  0.9080E-01
     11.740  0.1907E-02  0.1907E-02  0.9108E-01  0.9108E-01
     11.881  0.1873E-02  0.1873E-02  0.9135E-01  0.9135E-01
     12.023  0.1841E-02  0.1841E-02  0.9161E-01  0.9161E-01
     12.165  0.1808E-02  0.1808E-02  0.9187E-01  0.9187E-01
     12.306  0.1777E-02  0.1777E-02  0.9212E-01  0.9212E-01
     12.448  0.1746E-02  0.1746E-02  0.9237E-01  0.9237E-01
     12.589  0.1714E-02  0.1714E-02  0.9262E-01  0.9262E-01
     12.731  0.1678E-02  0.1678E-02  0.9286E-01  0.9286E-01
     12.873  0.1642E-02  0.1642E-02  0.9309E-01  0.9309E-01
     13.014  0.1615E-02  0.1615E-02  0.9332E-01  0.9332E-01
     13.156  0.1592E-02  0.1592E-02  0.9355E-01  0.9355E-01
     13.298  0.1570E-02  0.1570E-02  0.9377E-01  0.9377E-01
     13.439  0.1549E-02  0.1549E-02  0.9399E-01  0.9399E-01
     13.581  0.1532E-02  0.1532E-02  0.9421E-01  0.9421E-01
     13.722  0.1596E-02  0.1596E-02  0.9443E-01  0.9443E-01
     13.864  0.1682E-02  0.1682E-02  0.9466E-01  0.9466E-01
     14.006  0.1775E-02  0.1775E-02  0.9491E-01  0.9491E-01
     14.147  0.1961E-02  0.1961E-02  0.9517E-01  0.9517E-01
     14.289  0.2697E-02  0.2697E-02  0.9549E-01  0.9549E-01
     14.430  0.3633E-02  0.3633E-02  0.9594E-01  0.9594E-01
     14.572  0.4170E-02  0.4170E-02  0.9651E-01  0.9651E-01
     14.714  0.4473E-02  0.4473E-02  0.9712E-01  0.9712E-01
     14.855  0.4903E-02  0.4903E-02  0.9778E-01  0.9778E-01
     14.997  0.5384E-02  0.5384E-02  0.9851E-01  0.9851E-01
     15.139  0.6189E-02  0.6189E-02  0.9933E-01  0.9933E-01
     15.280  0.7055E-02  0.7055E-02  0.1003E+00  0.1003E+00
     15.422  0.8016E-02  0.8016E-02  0.1013E+00  0.1013E+00
     15.563  0.1389E-01  0.1389E-01  0.1027E+00  0.1027E+00
     15.705  0.1062E-01  0.1062E-01  0.1047E+00  0.1047E+00
     15.847  0.8708E-02  0.8708E-02  0.1059E+00  0.1059E+00
     15.988  0.8012E-02  0.8012E-02  0.1071E+00  0.1071E+00
     16.130  0.8685E-02  0.8685E-02  0.1083E+00  0.1083E+00
     16.271  0.7859E-02  0.7859E-02  0.1095E+00  0.1095E+00
     16.413  0.8469E-02  0.8469E-02  0.1107E+00  0.1107E+00
     16.555  0.8310E-02  0.8310E-02  0.1118E+00  0.1118E+00
     16.696  0.8005E-02  0.8005E-02  0.1130E+00  0.1130E+00
     16.838  0.6956E-02  0.6956E-02  0.1141E+00  0.1141E+00
     16.980  0.6297E-02  0.6297E-02  0.1150E+00  0.1150E+00
     17.121  0.6012E-02  0.6012E-02  0.1159E+00  0.1159E+00
     17.263  0.6159E-02  0.6159E-02  0.1167E+00  0.1167E+00
     17.404  0.5515E-02  0.5515E-02  0.1176E+00  0.1176E+00
     17.546  0.6320E-02  0.6320E-02  0.1184E+00  0.1184E+00
     17.688  0.8338E-02  0.8338E-02  0.1195E+00  0.1195E+00
     17.829  0.8334E-02  0.8334E-02  0.1207E+00  0.1207E+00
     17.971  0.8338E-02  0.8338E-02  0.1219E+00  0.1219E+00
     18.113  0.8518E-02  0.8518E-02  0.1230E+00  0.1230E+00
     18.254  0.6990E-02  0.6990E-02  0.1242E+00  0.1242E+00
     18.396  0.6478E-02  0.6478E-02  0.1251E+00  0.1251E+00
     18.537  0.5742E-02  0.5742E-02  0.1260E+00  0.1260E+00
     18.679  0.5508E-02  0.5508E-02  0.1268E+00  0.1268E+00
     18.821  0.5454E-02  0.5454E-02  0.1276E+00  0.1276E+00
     18.962  0.5695E-02  0.5695E-02  0.1284E+00  0.1284E+00
     19.104  0.5530E-02  0.5530E-02  0.1292E+00  0.1292E+00
     19.245  0.5857E-02  0.5857E-02  0.1300E+00  0.1300E+00
     19.387  0.6734E-02  0.6734E-02  0.1309E+00  0.1309E+00
     19.529  0.7118E-02  0.7118E-02  0.1318E+00  0.1318E+00
     19.670  0.8621E-02  0.8621E-02  0.1329E+00  0.1329E+00
     19.812  0.8489E-02  0.8489E-02  0.1341E+00  0.1341E+00
     19.954  0.9464E-02  0.9464E-02  0.1354E+00  0.1354E+00
     20.095  0.8378E-02  0.8378E-02  0.1367E+00  0.1367E+00
     20.237  0.7663E-02  0.7663E-02  0.1378E+00  0.1378E+00
     20.378  0.7199E-02  0.7199E-02  0.1388E+00  0.1388E+00
     20.520  0.7647E-02  0.7647E-02  0.1399E+00  0.1399E+00
     20.662  0.7387E-02  0.7387E-02  0.1409E+00  0.1409E+00
     20.803  0.6890E-02  0.6890E-02  0.1419E+00  0.1419E+00
     20.945  0.7059E-02  0.7059E-02  0.1429E+00  0.1429E+00
     21.086  0.6782E-02  0.6782E-02  0.1439E+00  0.1439E+00
     21.228  0.6426E-02  0.6426E-02  0.1448E+00  0.1448E+00
     21.370  0.6248E-02  0.6248E-02  0.1457E+00  0.1457E+00
     21.511  0.6324E-02  0.6324E-02  0.1466E+00  0.1466E+00
     21.653  0.6646E-02  0.6646E-02  0.1475E+00  0.1475E+00
     21.795  0.6381E-02  0.6381E-02  0.1485E+00  0.1485E+00
     21.936  0.6578E-02  0.6578E-02  0.1494E+00  0.1494E+00
     22.078  0.6664E-02  0.6664E-02  0.1503E+00  0.1503E+00
     22.219  0.6042E-02  0.6042E-02  0.1512E+00  0.1512E+00
     22.361  0.5702E-02  0.5702E-02  0.1521E+00  0.1521E+00
     22.503  0.5402E-02  0.5402E-02  0.1528E+00  0.1528E+00
     22.644  0.5172E-02  0.5172E-02  0.1536E+00  0.1536E+00
     22.786  0.4951E-02  0.4951E-02  0.1543E+00  0.1543E+00
     22.927  0.4564E-02  0.4564E-02  0.1550E+00  0.1550E+00
     23.069  0.4187E-02  0.4187E-02  0.1556E+00  0.1556E+00
     23.211  0.4533E-02  0.4533E-02  0.1562E+00  0.1562E+00
     23.352  0.4687E-02  0.4687E-02  0.1569E+00  0.1569E+00
     23.494  0.4097E-02  0.4097E-02  0.1575E+00  0.1575E+00
     23.636  0.3396E-02  0.3396E-02  0.1580E+00  0.1580E+00
     23.777  0.2682E-02  0.2682E-02  0.1585E+00  0.1585E+00
     23.919  0.2384E-02  0.2384E-02  0.1588E+00  0.1588E+00
     24.060  0.2160E-02  0.2160E-02  0.1592E+00  0.1592E+00
     24.202  0.1528E-02  0.1528E-02  0.1594E+00  0.1594E+00
     24.344  0.1267E-02  0.1267E-02  0.1596E+00  0.1596E+00
     24.485  0.9880E-03  0.9880E-03  0.1598E+00  0.1598E+00
     24.627  0.6881E-03  0.6881E-03  0.1599E+00  0.1599E+00
     24.769  0.3765E-03  0.3765E-03  0.1600E+00  0.1600E+00
     24.910  0.1525E-03  0.1525E-03  0.1600E+00  0.1600E+00
     25.052  0.1096E-04  0.1096E-04  0.1600E+00  0.1600E+00
     25.193  0.0000E+00  0.0000E+00  0.1600E+00  0.1600E+00
     25.335  0.0000E+00  0.0000E+00  0.1600E+00  0.1600E+00
     25.477  0.0000E+00  0.0000E+00  0.1600E+00  0.1600E+00
     25.618  0.0000E+00  0.0000E+00  0.1600E+00  0.1600E+00
     25.760  0.0000E+00  0.0000E+00  0.1600E+00  0.1600E+00
     25.901  0.0000E+00  0.0000E+00  0.1600E+00  0.1600E+00
     26.043  0.0000E+00  0.0000E+00  0.1600E+00  0.1600E+00
     26.185  0.0000E+00  0.0000E+00  0.1600E+00  0.1600E+00
     26.326  0.0000E+00  0.0000E+00  0.1600E+00  0.1600E+00
     26.468  0.0000E+00  0.0000E+00  0.1600E+00  0.1600E+00
     26.610  0.0000E+00  0.0000E+00  0.1600E+00  0.1600E+00
     26.751  0.0000E+00  0.0000E+00  0.1600E+00  0.1600E+00
     26.893  0.0000E+00  0.0000E+00  0.1600E+00  0.1600E+00
     27.034  0.0000E+00  0.0000E+00  0.1600E+00  0.1600E+00
     27.03438021    -15.45068757  301      6.80807882      1.00000000
    -15.451  0.0000E+00  0.0000E+00  0.0000E+00  0.0000E+00  0.0000E+00  0.0000E+00  0.0000E+00  0.0000E+00  0.0000E+00  0.0000E+00  0.0000E+00  0.0000E+00  0.0000E+00  0.0000E+00  0.0000E+00  0.0000E+00  0.0000E+00  0.0000E+00
    -15.309  0.0000E+00  0.0000E+00  0.0000E+00  0.0000E+00  0.0000E+00  0.0000E+00  0.0000E+00  0.0000E+00  0.0000E+00  0.0000E+00  0.0000E+00  0.0000E+00  0.0000E+00  0.0000E+00  0.0000E+00  0.0000E+00  0.0000E+00  0.0000E+00
    -15.167  0.0000E+00  0.0000E+00  0.0000E+00  0.0000E+00  0.0000E+00  0.0000E+00  0.0000E+00  0.0000E+00  0.0000E+00  0.0000E+00  0.0000E+00  0.0000E+00  0.0000E+00  0.0000E+00  0.0000E+00  0.0000E+00  0.0000E+00  0.0000E+00
    -15.026  0.0000E+00  0.0000E+00  0.0000E+00  0.0000E+00  0.0000E+00  0.0000E+00  0.0000E+00  0.0000E+00  0.0000E+00  0.0000E+00  0.0000E+00  0.0000E+00  0.0000E+00  0.0000E+00  0.0000E+00  0.0000E+00  0.0000E+00  0.0000E+00
    -14.884  0.0000E+00  0.0000E+00  0.0000E+00  0.0000E+00  0.0000E+00  0.0000E+00  0.0000E+00  0.0000E+00  0.0000E+00  0.0000E+00  0.0000E+00  0.0000E+00  0.0000E+00  0.0000E+00  0.0000E+00  0.0000E+00  0.0000E+00  0.0000E+00
    -14.743  0.0000E+00  0.0000E+00  0.0000E+00  0.0000E+00  0.0000E+00  0.0000E+00  0.0000E+00  0.0000E+00  0.0000E+00  0.0000E+00  0.0000E+00  0.0000E+00  0.0000E+00  0.0000E+00  0.0000E+00  0.0000E+00  0.0000E+00  0.0000E+00
    -14.601  0.0000E+00  0.0000E+00  0.0000E+00  0.0000E+00  0.0000E+00  0.0000E+00  0.0000E+00  0.0000E+00  0.0000E+00  0.0000E+00  0.0000E+00  0.0000E+00  0.0000E+00  0.0000E+00  0.0000E+00  0.0000E+00  0.0000E+00  0.0000E+00
    -14.459  0.0000E+00  0.0000E+00  0.0000E+00  0.0000E+00  0.0000E+00  0.0000E+00  0.0000E+00  0.0000E+00  0.0000E+00  0.0000E+00  0.0000E+00  0.0000E+00  0.0000E+00  0.0000E+00  0.0000E+00  0.0000E+00  0.0000E+00  0.0000E+00
    -14.318  0.0000E+00  0.0000E+00  0.0000E+00  0.0000E+00  0.0000E+00  0.0000E+00  0.0000E+00  0.0000E+00  0.0000E+00  0.0000E+00  0.0000E+00  0.0000E+00  0.0000E+00  0.0000E+00  0.0000E+00  0.0000E+00  0.0000E+00  0.0000E+00
    -14.176  0.0000E+00  0.0000E+00  0.0000E+00  0.0000E+00  0.0000E+00  0.0000E+00  0.0000E+00  0.0000E+00  0.0000E+00  0.0000E+00  0.0000E+00  0.0000E+00  0.0000E+00  0.0000E+00  0.0000E+00  0.0000E+00  0.0000E+00  0.0000E+00
    -14.035  0.0000E+00  0.0000E+00  0.0000E+00  0.0000E+00  0.0000E+00  0.0000E+00  0.0000E+00  0.0000E+00  0.0000E+00  0.0000E+00  0.0000E+00  0.0000E+00  0.0000E+00  0.0000E+00  0.0000E+00  0.0000E+00  0.0000E+00  0.0000E+00
    -13.893  0.0000E+00  0.0000E+00  0.0000E+00  0.0000E+00  0.0000E+00  0.0000E+00  0.0000E+00  0.0000E+00  0.0000E+00  0.0000E+00  0.0000E+00  0.0000E+00  0.0000E+00  0.0000E+00  0.0000E+00  0.0000E+00  0.0000E+00  0.0000E+00
    -13.751  0.0000E+00  0.0000E+00  0.0000E+00  0.0000E+00  0.0000E+00  0.0000E+00  0.0000E+00  0.0000E+00  0.0000E+00  0.0000E+00  0.0000E+00  0.0000E+00  0.0000E+00  0.0000E+00  0.0000E+00  0.0000E+00  0.0000E+00  0.0000E+00
    -13.610  0.0000E+00  0.0000E+00  0.0000E+00  0.0000E+00  0.0000E+00  0.0000E+00  0.0000E+00  0.0000E+00  0.0000E+00  0.0000E+00  0.0000E+00  0.0000E+00  0.0000E+00  0.0000E+00  0.0000E+00  0.0000E+00  0.0000E+00  0.0000E+00
    -13.468  0.2325E-02  0.2325E-02  0.1787E-05  0.1787E-05  0.7819E-06  0.7818E-06  0.5361E-05  0.5361E-05  0.0000E+00  0.0000E+00  0.0000E+00  0.0000E+00  0.0000E+00  0.0000E+00  0.0000E+00  0.0000E+00  0.0000E+00  0.0000E+00
    -13.326  0.1280E-01  0.1280E-01  0.4474E-04  0.4474E-04  0.6671E-05  0.6671E-05  0.5521E-04  0.5521E-04  0.0000E+00  0.0000E+00  0.0000E+00  0.0000E+00  0.0000E+00  0.0000E+00  0.0000E+00  0.0000E+00  0.0000E+00  0.0000E+00
    -13.185  0.1915E-01  0.1915E-01  0.1239E-03  0.1239E-03  0.9747E-05  0.9747E-05  0.1355E-03  0.1355E-03  0.0000E+00  0.0000E+00  0.0000E+00  0.0000E+00  0.0000E+00  0.0000E+00  0.0000E+00  0.0000E+00  0.0000E+00  0.0000E+00
    -13.043  0.2610E-01  0.2610E-01  0.2306E-03  0.2306E-03  0.1124E-04  0.1124E-04  0.2472E-03  0.2471E-03  0.0000E+00  0.0000E+00  0.0000E+00  0.0000E+00  0.0000E+00  0.0000E+00  0.0000E+00  0.0000E+00  0.0000E+00  0.0000E+00
    -12.902  0.2977E-01  0.2977E-01  0.3577E-03  0.3577E-03  0.2220E-04  0.2220E-04  0.3893E-03  0.3893E-03  0.0000E+00  0.0000E+00  0.0000E+00  0.0000E+00  0.0000E+00  0.0000E+00  0.0000E+00  0.0000E+00  0.0000E+00  0.0000E+00
    -12.760  0.3111E-01  0.3111E-01  0.5174E-03  0.5174E-03  0.3600E-04  0.3600E-04  0.5287E-03  0.5287E-03  0.0000E+00  0.0000E+00  0.0000E+00  0.0000E+00  0.0000E+00  0.0000E+00  0.0000E+00  0.0000E+00  0.0000E+00  0.0000E+00
    -12.618  0.3398E-01  0.3398E-01  0.6579E-03  0.6579E-03  0.4732E-04  0.4732E-04  0.6861E-03  0.6861E-03  0.0000E+00  0.0000E+00  0.0000E+00  0.0000E+00  0.0000E+00  0.0000E+00  0.0000E+00  0.0000E+00  0.0000E+00  0.0000E+00
    -12.477  0.3997E-01  0.3997E-01  0.8235E-03  0.8235E-03  0.5743E-04  0.5743E-04  0.8588E-03  0.8588E-03  0.0000E+00  0.0000E+00  0.0000E+00  0.0000E+00  0.0000E+00  0.0000E+00  0.0000E+00  0.0000E+00  0.0000E+00  0.0000E+00
    -12.335  0.4798E-01  0.4798E-01  0.1071E-02  0.1071E-02  0.6018E-04  0.6018E-04  0.1090E-02  0.1090E-02  0.0000E+00  0.0000E+00  0.0000E+00  0.0000E+00  0.0000E+00  0.0000E+00  0.0000E+00  0.0000E+00  0.0000E+00  0.0000E+00
    -12.193  0.4721E-01  0.4721E-01  0.1283E-02  0.1283E-02  0.5959E-04  0.5959E-04  0.1312E-02  0.1312E-02  0.0000E+00  0.0000E+00  0.0000E+00  0.0000E+00  0.0000E+00  0.0000E+00  0.0000E+00  0.0000E+00  0.0000E+00  0.0000E+00
    -12.052  0.4707E-01  0.4707E-01  0.1492E-02  0.1492E-02  0.5894E-04  0.5894E-04  0.1541E-02  0.1541E-02  0.0000E+00  0.0000E+00  0.0000E+00  0.0000E+00  0.0000E+00  0.0000E+00  0.0000E+00  0.0000E+00  0.0000E+00  0.0000E+00
    -11.910  0.4689E-01  0.4689E-01  0.1748E-02  0.1748E-02  0.5744E-04  0.5744E-04  0.1786E-02  0.1786E-02  0.0000E+00  0.0000E+00  0.0000E+00  0.0000E+00  0.0000E+00  0.0000E+00  0.0000E+00  0.0000E+00  0.0000E+00  0.0000E+00
    -11.769  0.4636E-01  0.4636E-01  0.1970E-02  0.1970E-02  0.5707E-04  0.5707E-04  0.2004E-02  0.2004E-02  0.0000E+00  0.0000E+00  0.0000E+00  0.0000E+00  0.0000E+00  0.0000E+00  0.0000E+00  0.0000E+00  0.0000E+00  0.0000E+00
    -11.627  0.4617E-01  0.4617E-01  0.2181E-02  0.2181E-02  0.5655E-04  0.5655E-04  0.2222E-02  0.2222E-02  0.0000E+00  0.0000E+00  0.0000E+00  0.0000E+00  0.0000E+00  0.0000E+00  0.0000E+00  0.0000E+00  0.0000E+00  0.0000E+00
    -11.485  0.4583E-01  0.4583E-01  0.2428E-02  0.2428E-02  0.5561E-04  0.5561E-04  0.2448E-02  0.2448E-02  0.0000E+00  0.0000E+00  0.0000E+00  0.0000E+00  0.0000E+00  0.0000E+00  0.0000E+00  0.0000E+00  0.0000E+00  0.0000E+00
    -11.344  0.4584E-01  0.4584E-01  0.2663E-02  0.2663E-02  0.5483E-04  0.5483E-04  0.2675E-02  0.2675E-02  0.0000E+00  0.0000E+00  0.0000E+00  0.0000E+00  0.0000E+00  0.0000E+00  0.0000E+00  0.0000E+00  0.0000E+00  0.0000E+00
    -11.202  0.4563E-01  0.4563E-01  0.2874E-02  0.2874E-02  0.5419E-04  0.5419E-04  0.2907E-02  0.2907E-02  0.0000E+00  0.0000E+00  0.0000E+00  0.0000E+00  0.0000E+00  0.0000E+00  0.0000E+00  0.0000E+00  0.0000E+00  0.0000E+00
    -11.061  0.4520E-01  0.4520E-01  0.3101E-02  0.3101E-02  0.5336E-04  0.5336E-04  0.3142E-02  0.3142E-02  0.0000E+00  0.0000E+00  0.0000E+00  0.0000E+00  0.0000E+00  0.0000E+00  0.0000E+00  0.0000E+00  0.0000E+00  0.0000E+00
    -10.919  0.4475E-01  0.4475E-01  0.3343E-02  0.3343E-02  0.5278E-04  0.5278E-04  0.3366E-02  0.3366E-02  0.0000E+00  0.0000E+00  0.0000E+00  0.0000E+00  0.0000E+00  0.0000E+00  0.0000E+00  0.0000E+00  0.0000E+00  0.0000E+00
    -10.777  0.4482E-01  0.4482E-01  0.3563E-02  0.3563E-02  0.5217E-04  0.5217E-04  0.3580E-02  0.3580E-02  0.0000E+00  0.0000E+00  0.0000E+00  0.0000E+00  0.0000E+00  0.0000E+00  0.0000E+00  0.0000E+00  0.0000E+00  0.0000E+00
    -10.636  0.4487E-01  0.4487E-01  0.3779E-02  0.3779E-02  0.5155E-04  0.5155E-04  0.3804E-02  0.3804E-02  0.0000E+00  0.0000E+00  0.0000E+00  0.0000E+00  0.0000E+00  0.0000E+00  0.0000E+00  0.0000E+00  0.0000E+00  0.0000E+00
    -10.494  0.4452E-01  0.4452E-01  0.4013E-02  0.4013E-02  0.5082E-04  0.5082E-04  0.4039E-02  0.4039E-02  0.0000E+00  0.0000E+00  0.0000E+00  0.0000E+00  0.0000E+00  0.0000E+00  0.0000E+00  0.0000E+00  0.0000E+00  0.0000E+00
    -10.352  0.4406E-01  0.4406E-01  0.4253E-02  0.4253E-02  0.5019E-04  0.5019E-04  0.4273E-02  0.4273E-02  0.0000E+00  0.0000E+00  0.0000E+00  0.0000E+00  0.0000E+00  0.0000E+00  0.0000E+00  0.0000E+00  0.0000E+00  0.0000E+00
    -10.211  0.4383E-01  0.4383E-01  0.4487E-02  0.4487E-02  0.4970E-04  0.4970E-04  0.4497E-02  0.4497E-02  0.0000E+00  0.0000E+00  0.0000E+00  0.0000E+00  0.0000E+00  0.0000E+00  0.0000E+00  0.0000E+00  0.0000E+00  0.0000E+00
    -10.069  0.4381E-01  0.4381E-01  0.4697E-02  0.4697E-02  0.4920E-04  0.4920E-04  0.4709E-02  0.4709E-02  0.0000E+00  0.0000E+00  0.0000E+00  0.0000E+00  0.0000E+00  0.0000E+00  0.0000E+00  0.0000E+00  0.0000E+00  0.0000E+00
     -9.928  0.4386E-01  0.4386E-01  0.4903E-02  0.4903E-02  0.4874E-04  0.4874E-04  0.4916E-02  0.4916E-02  0.0000E+00  0.0000E+00  0.0000E+00  0.0000E+00  0.0000E+00  0.0000E+00  0.0000E+00  0.0000E+00  0.0000E+00  0.0000E+00
     -9.786  0.4374E-01  0.4374E-01  0.5140E-02  0.5140E-02  0.4814E-04  0.4814E-04  0.5138E-02  0.5138E-02  0.0000E+00  0.0000E+00  0.0000E+00  0.0000E+00  0.0000E+00  0.0000E+00  0.0000E+00  0.0000E+00  0.0000E+00  0.0000E+00
     -9.644  0.4343E-01  0.4343E-01  0.5399E-02  0.5399E-02  0.4761E-04  0.4761E-04  0.5364E-02  0.5364E-02  0.0000E+00  0.0000E+00  0.0000E+00  0.0000E+00  0.0000E+00  0.0000E+00  0.0000E+00  0.0000E+00  0.0000E+00  0.0000E+00
     -9.503  0.4328E-01  0.4328E-01  0.5633E-02  0.5633E-02  0.4720E-04  0.4720E-04  0.5583E-02  0.5583E-02  0.0000E+00  0.0000E+00  0.0000E+00  0.0000E+00  0.0000E+00  0.0000E+00  0.0000E+00  0.0000E+00  0.0000E+00  0.0000E+00
     -9.361  0.4322E-01  0.4322E-01  0.5851E-02  0.5851E-02  0.4687E-04  0.4687E-04  0.5794E-02  0.5794E-02  0.0000E+00  0.0000E+00  0.0000E+00  0.0000E+00  0.0000E+00  0.0000E+00  0.0000E+00  0.0000E+00  0.0000E+00  0.0000E+00
     -9.220  0.4327E-01  0.4327E-01  0.6051E-02  0.6051E-02  0.4652E-04  0.4652E-04  0.5996E-02  0.5996E-02  0.0000E+00  0.0000E+00  0.0000E+00  0.0000E+00  0.0000E+00  0.0000E+00  0.0000E+00  0.0000E+00  0.0000E+00  0.0000E+00
     -9.078  0.4338E-01  0.4338E-01  0.6242E-02  0.6242E-02  0.4624E-04  0.4624E-04  0.6188E-02  0.6188E-02  0.0000E+00  0.0000E+00  0.0000E+00  0.0000E+00  0.0000E+00  0.0000E+00  0.0000E+00  0.0000E+00  0.0000E+00  0.0000E+00
     -8.936  0.4345E-01  0.4345E-01  0.6472E-02  0.6472E-02  0.4600E-04  0.4600E-04  0.6392E-02  0.6392E-02  0.0000E+00  0.0000E+00  0.0000E+00  0.0000E+00  0.0000E+00  0.0000E+00  0.0000E+00  0.0000E+00  0.0000E+00  0.0000E+00
     -8.795  0.4362E-01  0.4362E-01  0.6720E-02  0.6720E-02  0.4573E-04  0.4573E-04  0.6600E-02  0.6600E-02  0.0000E+00  0.0000E+00  0.0000E+00  0.0000E+00  0.0000E+00  0.0000E+00  0.0000E+00  0.0000E+00  0.0000E+00  0.0000E+00
     -8.653  0.4393E-01  0.4393E-01  0.6950E-02  0.6950E-02  0.4571E-04  0.4571E-04  0.6786E-02  0.6786E-02  0.0000E+00  0.0000E+00  0.0000E+00  0.0000E+00  0.0000E+00  0.0000E+00  0.0000E+00  0.0000E+00  0.0000E+00  0.0000E+00
     -8.511  0.4448E-01  0.4448E-01  0.7170E-02  0.7170E-02  0.4589E-04  0.4589E-04  0.6964E-02  0.6964E-02  0.0000E+00  0.0000E+00  0.0000E+00  0.0000E+00  0.0000E+00  0.0000E+00  0.0000E+00  0.0000E+00  0.0000E+00  0.0000E+00
     -8.370  0.4558E-01  0.4558E-01  0.7366E-02  0.7366E-02  0.4632E-04  0.4632E-04  0.7147E-02  0.7147E-02  0.0000E+00  0.0000E+00  0.0000E+00  0.0000E+00  0.0000E+00  0.0000E+00  0.0000E+00  0.0000E+00  0.0000E+00  0.0000E+00