    4    4  100    2
  0.1028436E+02  0.2467291E-09  0.2467292E-09  0.7803073E-09  0.1500000E-16
   1.0000000000000000E-004
  CAR 
 unknown system                          
     16    111     16
 
  0.3742002E-15  0.3742002E-15  0.3742002E-15  0.7716049E-03
    1      -13.519548    -13.519547   1.000000   1.000000
    2      -12.380683    -12.380682   1.000000   1.000000
    3       -3.018673     -3.018672   1.000000   1.000000
    4        1.686548      1.686549   1.000000   1.000000
    5        3.938849      3.938850   1.000000   1.000000
    6        3.938908      3.938909   1.000000   1.000000
    7        4.047256      4.047258   1.000000   1.000000
    8        4.047315      4.047316   1.000000   1.000000
    9       13.580103     13.580104   0.000000   0.000000
   10       15.517571     15.517572   0.000000   0.000000
   11       15.517633     15.517634   0.000000   0.000000
   12       15.756802     15.756803   0.000000   0.000000
   13       15.756866     15.756868   0.000000   0.000000
   14       18.523746     18.523748   0.000000   0.000000
   15       19.373552     19.373554   0.000000   0.000000
   16       20.117361     20.117363   0.000000   0.000000
 
  0.5555556E-01  0.3821610E-15  0.3742002E-15  0.4629630E-02
    1      -13.442332    -13.442331   1.000000   1.000000
    2      -12.307586    -12.307585   1.000000   1.000000
    3       -2.924386     -2.924385   1.000000   1.000000
    4        1.768864      1.768865   1.000000   1.000000
    5        3.616193      3.616195   1.000000   1.000000
    6        3.759789      3.759790   1.000000   1.000000
    7        3.760832      3.760833   1.000000   1.000000
    8        3.894839      3.894841   1.000000   1.000000
    9       13.654400     13.654401   0.000000   0.000000
   10       15.547252     15.547253   0.000000   0.000000
   11       15.821349     15.821351   0.000000   0.000000
   12       15.850995     15.850997   0.000000   0.000000
   13       16.089666     16.089668   0.000000   0.000000
   14       18.224022     18.224023   0.000000   0.000000
   15       19.115665     19.115667   0.000000   0.000000
   16       20.246063     20.246064   0.000000   0.000000
 
  0.1111111E+00  0.3889703E-15  0.3742002E-15  0.4629630E-02
    1      -13.210995    -13.210994   1.000000   1.000000
    2      -12.088675    -12.088673   1.000000   1.000000
    3       -2.642721     -2.642720   1.000000   1.000000
    4        2.014317      2.014318   1.000000   1.000000
    5        2.738640      2.738642   1.000000   1.000000
    6        2.959725      2.959726   1.000000   1.000000
    7        3.300076      3.300078   1.000000   1.000000
    8        3.479465      3.479466   1.000000   1.000000
    9       13.881622     13.881623   0.000000   0.000000
   10       15.529280     15.529281   0.000000   0.000000
   11       15.961270     15.961272   0.000000   0.000000
   12       16.782738     16.782740   0.000000   0.000000
   13       17.027126     17.027128   0.000000   0.000000
   14       17.371972     17.371974   0.000000   0.000000
   15       18.389571     18.389573   0.000000   0.000000
   16       20.645684     20.645685   0.000000   0.000000
 
  0.1666667E+00  0.3636087E-15  0.3742002E-15  0.4629630E-02
    1      -12.826648    -12.826647   1.000000   1.000000
    2      -11.724856    -11.724855   1.000000   1.000000
    3       -2.175687     -2.175686   1.000000   1.000000
    4        1.485262      1.485263   1.000000   1.000000
    5        1.798163      1.798164   1.000000   1.000000
    6        2.417204      2.417205   1.000000   1.000000
    7        2.693357      2.693358   1.000000   1.000000
    8        2.910375      2.910376   1.000000   1.000000
    9       14.258756     14.258757   0.000000   0.000000
   10       15.390184     15.390186   0.000000   0.000000
   11       16.062557     16.062558   0.000000   0.000000
   12       16.071354     16.071356   0.000000   0.000000
   13       17.325348     17.325350   0.000000   0.000000
   14       18.186745     18.186747   0.000000   0.000000
   15       18.430831     18.430833   0.000000   0.000000
   16       21.260805     21.260806   0.000000   0.000000
 
  0.2222222E+00  0.3951816E-15  0.3742002E-15  0.4629630E-02
    1      -12.291320    -12.291319   1.000000   1.000000
    2      -11.218110    -11.218109   1.000000   1.000000
    3       -1.527663     -1.527662   1.000000   1.000000
    4        0.023729      0.023730   1.000000   1.000000
    5        0.429946      0.429947   1.000000   1.000000
    6        2.055973      2.055974   1.000000   1.000000
    7        2.300017      2.300019   1.000000   1.000000
    8        2.965529      2.965530   1.000000   1.000000
    9       14.460147     14.460149   0.000000   0.000000
   10       14.721427     14.721428   0.000000   0.000000
   11       15.197744     15.197745   0.000000   0.000000
   12       16.063365     16.063366   0.000000   0.000000
   13       16.091371     16.091372   0.000000   0.000000
   14       19.921582     19.921584   0.000000   0.000000
   15       20.154161     20.154163   0.000000   0.000000
   16       21.932929     21.932930   0.000000   0.000000
 
  0.2777778E+00  0.3860699E-15  0.3742002E-15  0.4629630E-02
    1      -11.607840    -11.607839   1.000000   1.000000
    2      -10.571092    -10.571091   1.000000   1.000000
    3       -1.525783     -1.525782   1.000000   1.000000
    4       -1.027976     -1.027975   1.000000   1.000000
    5       -0.705952     -0.705951   1.000000   1.000000
    6        1.468148      1.468149   1.000000   1.000000
    7        1.729596      1.729597   1.000000   1.000000
    8        3.635070      3.635071   1.000000   1.000000
    9       12.703712     12.703713   0.000000   0.000000
   10       14.697056     14.697058   0.000000   0.000000
   11       14.744293     14.744294   0.000000   0.000000
   12       15.444644     15.444645   0.000000   0.000000
   13       16.170536     16.170537   0.000000   0.000000
   14       21.876623     21.876625   0.000000   0.000000
   15       22.083416     22.083418   0.000000   0.000000
   16       22.440330     22.440331   0.000000   0.000000
 
  0.3333333E+00  0.3592851E-15  0.3742002E-15  0.4629630E-02
    1      -10.780943    -10.780942   1.000000   1.000000
    2       -9.788743     -9.788742   1.000000   1.000000
    3       -3.082223     -3.082222   1.000000   1.000000
    4       -2.499417     -2.499415   1.000000   1.000000
    5        0.274685      0.274686   1.000000   1.000000
    6        0.976100      0.976101   1.000000   1.000000
    7        1.249665      1.249667   1.000000   1.000000
    8        4.368451      4.368452   1.000000   1.000000
    9       10.977183     10.977184   0.000000   0.000000
   10       13.292546     13.292547   0.000000   0.000000
   11       14.500230     14.500231   0.000000   0.000000
   12       15.634512     15.634513   0.000000   0.000000
   13       16.718184     16.718185   0.000000   0.000000
   14       22.523850     22.523851   0.000000   0.000000
   15       23.899569     23.899571   0.000000   0.000000
   16       24.076034     24.076037   0.000000   0.000000
 
  0.3888889E+00  0.3906177E-15  0.3742002E-15  0.4629630E-02
    1       -9.818368     -9.818367   1.000000   1.000000
    2       -8.880387     -8.880386   1.000000   1.000000
    3       -4.588872     -4.588871   1.000000   1.000000
    4       -3.930449     -3.930448   1.000000   1.000000
    5        0.609085      0.609087   1.000000   1.000000
    6        0.890520      0.890522   1.000000   1.000000
    7        1.383593      1.383594   1.000000   1.000000
    8        5.001135      5.001136   1.000000   1.000000
    9        9.528568      9.528569   0.000000   0.000000
   10       11.913794     11.913796   0.000000   0.000000
   11       14.292813     14.292815   0.000000   0.000000
   12       15.597941     15.597943   0.000000   0.000000
   13       17.658751     17.658752   0.000000   0.000000
   14       22.028475     22.028476   0.000000   0.000000
   15       23.741283     23.741285   0.000000   0.000000
   16       24.927748     24.927749   0.000000   0.000000
 
  0.4444444E+00  0.3934861E-15  0.3742002E-15  0.4629630E-02
    1       -8.740115     -8.740114   1.000000   1.000000
    2       -7.882775     -7.882774   1.000000   1.000000
    3       -5.978362     -5.978361   1.000000   1.000000
    4       -5.276629     -5.276628   1.000000   1.000000
    5        0.383182      0.383183   1.000000   1.000000
    6        0.668882      0.668884   1.000000   1.000000
    7        2.530036      2.530036   1.000000   1.000000
    8        5.109877      5.109879   1.000000   1.000000
    9        8.844764      8.844764   0.000000   0.000000
   10       10.662244     10.662246   0.000000   0.000000
   11       14.159300     14.159301   0.000000   0.000000
   12       15.547008     15.547009   0.000000   0.000000
   13       18.760173     18.760174   0.000000   0.000000
   14       21.084506     21.084507   0.000000   0.000000
   15       23.764973     23.764976   0.000000   0.000000
   16       24.440996     24.440997   0.000000   0.000000
 
  0.5000000E+00  0.4815189E-15  0.3742002E-15  0.2314815E-02
    1       -7.803038     -7.803037   1.000000   1.000000
    2       -7.417737     -7.417736   1.000000   1.000000
    3       -6.567821     -6.567820   1.000000   1.000000
    4       -6.312117     -6.312116   1.000000   1.000000
    5        0.306991      0.306993   1.000000   1.000000
    6        0.594029      0.594030   1.000000   1.000000
    7        3.235958      3.235958   1.000000   1.000000
    8        4.769647      4.769649   1.000000   1.000000
    9        8.967772      8.967772   0.000000   0.000000
   10        9.942054      9.942057   0.000000   0.000000
   11       14.114159     14.114160   0.000000   0.000000
   12       15.527118     15.527120   0.000000   0.000000
   13       19.902823     19.902825   0.000000   0.000000
   14       19.969874     19.969875   0.000000   0.000000
   15       23.799268     23.799270   0.000000   0.000000
   16       24.249549     24.249549   0.000000   0.000000
 
  0.5555556E-01  0.5555556E-01  0.3742002E-15  0.4629630E-02
    1      -13.288019    -13.288018   1.000000   1.000000
    2      -12.161543    -12.161542   1.000000   1.000000
    3       -2.736366     -2.736366   1.000000   1.000000
    4        1.932775      1.932776   1.000000   1.000000
    5        3.066763      3.066765   1.000000   1.000000
    6        3.196415      3.196416   1.000000   1.000000
    7        3.456014      3.456016   1.000000   1.000000
    8        3.564859      3.564861   1.000000   1.000000
    9       13.806553     13.806553   0.000000   0.000000
   10       15.638835     15.638836   0.000000   0.000000
   11       15.956645     15.956647   0.000000   0.000000
   12       16.422179     16.422181   0.000000   0.000000
   13       16.646669     16.646670   0.000000   0.000000
   14       17.654109     17.654111   0.000000   0.000000
   15       18.620141     18.620143   0.000000   0.000000
   16       20.528842     20.528844   0.000000   0.000000
 
  0.1111111E+00  0.5555556E-01  0.3742002E-15  0.9259259E-02
    1      -12.980217    -12.980216   1.000000   1.000000
    2      -11.870279    -11.870278   1.000000   1.000000
    3       -2.362039     -2.362038   1.000000   1.000000
    4        2.060275      2.060276   1.000000   1.000000
    5        2.257147      2.257149   1.000000   1.000000
    6        2.278348      2.278350   1.000000   1.000000
    7        2.851743      2.851744   1.000000   1.000000
    8        3.018546      3.018548   1.000000   1.000000
    9       14.116894     14.116894   0.000000   0.000000
   10       15.695073     15.695075   0.000000   0.000000
   11       16.184599     16.184601   0.000000   0.000000
   12       16.603512     16.603514   0.000000   0.000000
   13       17.384243     17.384245   0.000000   0.000000
   14       17.655301     17.655303   0.000000   0.000000
   15       17.712262     17.712264   0.000000   0.000000
   16       21.134913     21.134914   0.000000   0.000000
 
  0.1666667E+00  0.5555556E-01  0.3742002E-15  0.9259259E-02
    1      -12.520408    -12.520407   1.000000   1.000000
    2      -11.434962    -11.434960   1.000000   1.000000
    3       -1.804283     -1.804282   1.000000   1.000000
    4        0.739569      0.739570   1.000000   1.000000
    5        1.072658      1.072659   1.000000   1.000000
    6        2.166625      2.166626   1.000000   1.000000
    7        2.393892      2.393894   1.000000   1.000000
    8        2.733674      2.733675   1.000000   1.000000
    9       14.574459     14.574460   0.000000   0.000000
   10       15.181803     15.181805   0.000000   0.000000
   11       15.569184     15.569185   0.000000   0.000000
   12       16.328207     16.328209   0.000000   0.000000
   13       16.541286     16.541288   0.000000   0.000000
   14       18.707260     18.707261   0.000000   0.000000
   15       19.063034     19.063036   0.000000   0.000000
   16       21.975252     21.975253   0.000000   0.000000
 
  0.2222222E+00  0.5555556E-01  0.3742002E-15  0.9259259E-02
    1      -11.910994    -11.910993   1.000000   1.000000
    2      -10.858045    -10.858044   1.000000   1.000000
    3       -1.068910     -1.068909   1.000000   1.000000
    4       -0.743526     -0.743525   1.000000   1.000000
    5       -0.305714     -0.305713   1.000000   1.000000
    6        1.517972      1.517973   1.000000   1.000000
    7        1.782292      1.782293   1.000000   1.000000
    8        3.345713      3.345715   1.000000   1.000000
    9       13.523440     13.523441   0.000000   0.000000
   10       15.051063     15.051065   0.000000   0.000000
   11       15.235924     15.235926   0.000000   0.000000
   12       15.441028     15.441029   0.000000   0.000000
   13       16.368996     16.368997   0.000000   0.000000
   14       20.223125     20.223126   0.000000   0.000000
   15       20.747738     20.747740   0.000000   0.000000
   16       22.906053     22.906055   0.000000   0.000000
 
  0.2777778E+00  0.5555556E-01  0.3742002E-15  0.9259259E-02
    1      -11.155836    -11.155835   1.000000   1.000000
    2      -10.143350    -10.143349   1.000000   1.000000
    3       -2.283713     -2.283711   1.000000   1.000000
    4       -1.751669     -1.751668   1.000000   1.000000
    5       -0.166278     -0.166278   1.000000   1.000000
    6        0.958651      0.958653   1.000000   1.000000
    7        1.245205      1.245206   1.000000   1.000000
    8        4.057422      4.057423   1.000000   1.000000
    9       11.790464     11.790465   0.000000   0.000000
   10       13.869903     13.869905   0.000000   0.000000
   11       14.952148     14.952149   0.000000   0.000000
   12       15.829710     15.829711   0.000000   0.000000
   13       16.520730     16.520731   0.000000   0.000000
   14       21.542519     21.542521   0.000000   0.000000
   15       22.585815     22.585818   0.000000   0.000000
   16       23.554285     23.554287   0.000000   0.000000
 
  0.3333333E+00  0.5555556E-01  0.3742002E-15  0.9259259E-02
    1      -10.260743    -10.260742   1.000000   1.000000
    2       -9.297318     -9.297317   1.000000   1.000000
    3       -3.808960     -3.808959   1.000000   1.000000
    4       -3.192984     -3.192983   1.000000   1.000000
    5        0.519127      0.519128   1.000000   1.000000
    6        0.819129      0.819130   1.000000   1.000000
    7        0.883326      0.883327   1.000000   1.000000
    8        4.775712      4.775713   1.000000   1.000000
    9       10.178156     10.178157   0.000000   0.000000
   10       12.497007     12.497008   0.000000   0.000000
   11       14.725311     14.725312   0.000000   0.000000
   12       15.947055     15.947056   0.000000   0.000000
   13       17.228012     17.228013   0.000000   0.000000
   14       21.996890     21.996891   0.000000   0.000000
   15       23.431155     23.431157   0.000000   0.000000
   16       24.282907     24.282908   0.000000   0.000000
 
  0.3888889E+00  0.5555556E-01  0.3742002E-15  0.9259259E-02
    1       -9.237585     -9.237584   1.000000   1.000000
    2       -8.336443     -8.336442   1.000000   1.000000
    3       -5.261846     -5.261845   1.000000   1.000000
    4       -4.578381     -4.578380   1.000000   1.000000
    5        0.217351      0.217352   1.000000   1.000000
    6        0.525647      0.525649   1.000000   1.000000
    7        2.030224      2.030225   1.000000   1.000000
    8        5.218896      5.218897   1.000000   1.000000
    9        9.041621      9.041622   0.000000   0.000000
   10       11.184126     11.184127   0.000000   0.000000
   11       14.553189     14.553190   0.000000   0.000000
   12       15.904887     15.904888   0.000000   0.000000
   13       18.244441     18.244442   0.000000   0.000000
   14       21.502394     21.502395   0.000000   0.000000
   15       23.295057     23.295058   0.000000   0.000000
   16       23.736217     23.736219   0.000000   0.000000
 
  0.4444444E+00  0.5555556E-01  0.3742002E-15  0.9259259E-02
    1       -8.134305     -8.134304   1.000000   1.000000
    2       -7.401006     -7.401005   1.000000   1.000000
    3       -6.470729     -6.470728   1.000000   1.000000
    4       -5.845636     -5.845634   1.000000   1.000000
    5        0.064313      0.064314   1.000000   1.000000
    6        0.376254      0.376256   1.000000   1.000000
    7        3.082455      3.082456   1.000000   1.000000
    8        4.972301      4.972302   1.000000   1.000000
    9        8.885266      8.885267   0.000000   0.000000
   10       10.091656     10.091658   0.000000   0.000000
   11       14.462559     14.462560   0.000000   0.000000
   12       15.869587     15.869588   0.000000   0.000000
   13       19.375020     19.375021   0.000000   0.000000
   14       20.520481     20.520482   0.000000   0.000000
   15       23.181460     23.181461   0.000000   0.000000
   16       23.497744     23.497746   0.000000   0.000000
 
  0.1111111E+00  0.1111111E+00  0.3742002E-15  0.4629630E-02
    1      -12.596931    -12.596930   1.000000   1.000000
    2      -11.507412    -11.507411   1.000000   1.000000
    3       -1.896754     -1.896753   1.000000   1.000000
    4        1.145572      1.145573   1.000000   1.000000
    5        1.336651      1.336652   1.000000   1.000000
    6        2.131135      2.131136   1.000000   1.000000
    7        2.271653      2.271654   1.000000   1.000000
    8        2.655790      2.655791   1.000000   1.000000
    9       14.521200     14.521201   0.000000   0.000000
   10       15.474196     15.474197   0.000000   0.000000
   11       16.105588     16.105590   0.000000   0.000000
   12       16.593407     16.593408   0.000000   0.000000
   13       16.679509     16.679511   0.000000   0.000000
   14       17.976453     17.976454   0.000000   0.000000
   15       18.309234     18.309235   0.000000   0.000000
   16       22.097597     22.097599   0.000000   0.000000
 
  0.1666667E+00  0.1111111E+00  0.3742002E-15  0.9259259E-02
    1      -12.063075    -12.063074   1.000000   1.000000
    2      -11.002058    -11.002057   1.000000   1.000000
    3       -1.251213     -1.251212   1.000000   1.000000
    4       -0.069623     -0.069622   1.000000   1.000000
    5        0.229050      0.229052   1.000000   1.000000
    6        1.313792      1.313793   1.000000   1.000000
    7        1.529208      1.529210   1.000000   1.000000
    8        3.198926      3.198927   1.000000   1.000000
    9       14.068313     14.068315   0.000000   0.000000
   10       15.080948     15.080949   0.000000   0.000000
   11       15.451029     15.451031   0.000000   0.000000
   12       16.234362     16.234363   0.000000   0.000000
   13       16.979498     16.979500   0.000000   0.000000
   14       18.786330     18.786331   0.000000   0.000000
   15       19.339096     19.339097   0.000000   0.000000
   16       23.321320     23.321322   0.000000   0.000000
 
  0.2222222E+00  0.1111111E+00  0.3742002E-15  0.9259259E-02
    1      -11.381913    -11.381912   1.000000   1.000000
    2      -10.357391    -10.357390   1.000000   1.000000
    3       -1.485627     -1.485625   1.000000   1.000000
    4       -1.048179     -1.048178   1.000000   1.000000
    5       -0.432977     -0.432976   1.000000   1.000000
    6        0.602071      0.602072   1.000000   1.000000
    7        0.896266      0.896267   1.000000   1.000000
    8        3.863590      3.863591   1.000000   1.000000
    9       12.480101     12.480103   0.000000   0.000000
   10       14.154967     14.154969   0.000000   0.000000
   11       15.711643     15.711644   0.000000   0.000000
   12       16.135160     16.135161   0.000000   0.000000
   13       17.141872     17.141873   0.000000   0.000000
   14       19.880130     19.880131   0.000000   0.000000
   15       20.815399     20.815401   0.000000   0.000000
   16       23.241409     23.241411   0.000000   0.000000
 
  0.2777778E+00  0.1111111E+00  0.3742002E-15  0.9259259E-02
    1      -10.558414    -10.558413   1.000000   1.000000
    2       -9.578502     -9.578501   1.000000   1.000000
    3       -2.967545     -2.967544   1.000000   1.000000
    4       -2.420286     -2.420285   1.000000   1.000000
    5        0.050023      0.050024   1.000000   1.000000
    6        0.386809      0.386810   1.000000   1.000000
    7        0.543887      0.543887   1.000000   1.000000
    8        4.597228      4.597229   1.000000   1.000000
    9       10.859748     10.859750   0.000000   0.000000
   10       12.848271     12.848273   0.000000   0.000000
   11       15.745242     15.745243   0.000000   0.000000
   12       16.599583     16.599584   0.000000   0.000000
   13       17.244129     17.244130   0.000000   0.000000
   14       20.919086     20.919088   0.000000   0.000000
   15       22.514322     22.514323   0.000000   0.000000
   16       22.845921     22.845922   0.000000   0.000000
 
  0.3333333E+00  0.1111111E+00  0.3742002E-15  0.9259259E-02
    1       -9.600933     -9.600932   1.000000   1.000000
    2       -8.675638     -8.675637   1.000000   1.000000
    3       -4.430415     -4.430414   1.000000   1.000000
    4       -3.796200     -3.796199   1.000000   1.000000
    5       -0.344422     -0.344420   1.000000   1.000000
    6        0.014233      0.014235   1.000000   1.000000
    7        1.649489      1.649490   1.000000   1.000000
    8        5.245648      5.245650   1.000000   1.000000
    9        9.455151      9.455152   0.000000   0.000000
   10       11.564934     11.564936   0.000000   0.000000
   11       15.555246     15.555248   0.000000   0.000000
   12       16.844514     16.844515   0.000000   0.000000
   13       17.897841     17.897841   0.000000   0.000000
   14       21.345471     21.345472   0.000000   0.000000
   15       22.275326     22.275327   0.000000   0.000000
   16       22.941707     22.941709   0.000000   0.000000
 
  0.3888889E+00  0.1111111E+00  0.3742002E-15  0.9259259E-02
    1       -8.530592     -8.530591   1.000000   1.000000
    2       -7.686763     -7.686762   1.000000   1.000000
    3       -5.792366     -5.792365   1.000000   1.000000
    4       -5.109669     -5.109668   1.000000   1.000000
    5       -0.582085     -0.582084   1.000000   1.000000
    6       -0.212622     -0.212621   1.000000   1.000000
    7        2.796069      2.796070   1.000000   1.000000
    8        5.375439      5.375441   1.000000   1.000000
    9        8.790159      8.790160   0.000000   0.000000
   10       10.368325     10.368326   0.000000   0.000000
   11       15.422426     15.422428   0.000000   0.000000
   12       16.829076     16.829077   0.000000   0.000000
   13       18.926455     18.926456   0.000000   0.000000
   14       20.927985     20.927986   0.000000   0.000000
   15       21.833317     21.833318   0.000000   0.000000
   16       22.717382     22.717384   0.000000   0.000000
 
  0.4444444E+00  0.1111111E+00  0.3742002E-15  0.4629630E-02
    1       -7.606227     -7.606226   1.000000   1.000000
    2       -7.222995     -7.222994   1.000000   1.000000
    3       -6.373859     -6.373858   1.000000   1.000000
    4       -6.125975     -6.125974   1.000000   1.000000
    5       -0.661576     -0.661574   1.000000   1.000000
    6       -0.288823     -0.288822   1.000000   1.000000
    7        3.508606      3.508606   1.000000   1.000000
    8        5.025697      5.025699   1.000000   1.000000
    9        9.014619      9.014619   0.000000   0.000000
   10        9.581516      9.581518   0.000000   0.000000
   11       15.376549     15.376550   0.000000   0.000000
   12       16.814474     16.814475   0.000000   0.000000
   13       19.947188     19.947189   0.000000   0.000000
   14       20.061761     20.061761   0.000000   0.000000
   15       21.678581     21.678581   0.000000   0.000000
   16       22.645510     22.645512   0.000000   0.000000
 
  0.1666667E+00  0.1666667E+00  0.3742002E-15  0.4629630E-02
    1      -11.457473    -11.457472   1.000000   1.000000
    2      -10.428958    -10.428957   1.000000   1.000000
    3       -0.989815     -0.989814   1.000000   1.000000
    4       -0.741239     -0.741237   1.000000   1.000000
    5       -0.522214     -0.522213   1.000000   1.000000
    6        0.375736      0.375737   1.000000   1.000000
    7        0.557353      0.557355   1.000000   1.000000
    8        3.797898      3.797899   1.000000   1.000000
    9       12.780700     12.780702   0.000000   0.000000
   10       14.207338     14.207340   0.000000   0.000000
   11       15.746826     15.746827   0.000000   0.000000
   12       17.029395     17.029396   0.000000   0.000000
   13       17.637386     17.637388   0.000000   0.000000
   14       19.084462     19.084462   0.000000   0.000000
   15       19.591341     19.591343   0.000000   0.000000
   16       23.115245     23.115247   0.000000   0.000000
 
  0.2222222E+00  0.1666667E+00  0.3742002E-15  0.9259259E-02
    1      -10.708026    -10.708025   1.000000   1.000000
    2       -9.720003     -9.720002   1.000000   1.000000
    3       -2.192192     -2.192190   1.000000   1.000000
    4       -1.810953     -1.810952   1.000000   1.000000
    5       -0.474469     -0.474468   1.000000   1.000000
    6       -0.191735     -0.191734   1.000000   1.000000
    7        0.372538      0.372539   1.000000   1.000000
    8        4.500148      4.500149   1.000000   1.000000
    9       11.353871     11.353873   0.000000   0.000000
   10       12.947387     12.947389   0.000000   0.000000
   11       16.526798     16.526799   0.000000   0.000000
   12       17.201595     17.201596   0.000000   0.000000
   13       18.217942     18.217944   0.000000   0.000000
   14       19.606457     19.606458   0.000000   0.000000
   15       20.677092     20.677094   0.000000   0.000000
   16       22.555021     22.555023   0.000000   0.000000
 
  0.2777778E+00  0.1666667E+00  0.3742002E-15  0.9259259E-02
    1       -9.821481     -9.821480   1.000000   1.000000
    2       -8.882910     -8.882909   1.000000   1.000000
    3       -3.558919     -3.558918   1.000000   1.000000
    4       -3.024128     -3.024127   1.000000   1.000000
    5       -1.078086     -1.078084   1.000000   1.000000
    6       -0.699133     -0.699132   1.000000   1.000000
    7        1.413675      1.413676   1.000000   1.000000
    8        5.229335      5.229336   1.000000   1.000000
    9        9.916437      9.916438   0.000000   0.000000
   10       11.731626     11.731628   0.000000   0.000000
   11       16.930487     16.930488   0.000000   0.000000
   12       17.517559     17.517560   0.000000   0.000000
   13       18.411548     18.411550   0.000000   0.000000
   14       20.385035     20.385036   0.000000   0.000000
   15       21.643570     21.643571   0.000000   0.000000
   16       22.209670     22.209672   0.000000   0.000000
 
  0.3333333E+00  0.1666667E+00  0.3742002E-15  0.9259259E-02
    1       -8.811230     -8.811229   1.000000   1.000000
    2       -7.936060     -7.936059   1.000000   1.000000
    3       -4.927880     -4.927879   1.000000   1.000000
    4       -4.295093     -4.295091   1.000000   1.000000
    5       -1.446984     -1.446983   1.000000   1.000000
    6       -1.024867     -1.024865   1.000000   1.000000
    7        2.555098      2.555099   1.000000   1.000000
    8        5.727333      5.727334   1.000000   1.000000
    9        8.818251      8.818252   0.000000   0.000000
   10       10.572776     10.572777   0.000000   0.000000
   11       16.789021     16.789022   0.000000   0.000000
   12       18.169716     18.169718   0.000000   0.000000
   13       18.705760     18.705761   0.000000   0.000000
   14       20.797561     20.797562   0.000000   0.000000
   15       20.918829     20.918830   0.000000   0.000000
   16       21.836560     21.836562   0.000000   0.000000
 
  0.3888889E+00  0.1666667E+00  0.3742002E-15  0.9259259E-02
    1       -7.728546     -7.728545   1.000000   1.000000
    2       -7.020859     -7.020858   1.000000   1.000000
    3       -6.088344     -6.088343   1.000000   1.000000
    4       -5.500847     -5.500846   1.000000   1.000000
    5       -1.623959     -1.623958   1.000000   1.000000
    6       -1.185754     -1.185753   1.000000   1.000000
    7        3.615728      3.615729   1.000000   1.000000
    8        5.489285      5.489286   1.000000   1.000000
    9        8.737119      8.737120   0.000000   0.000000
   10        9.513760      9.513762   0.000000   0.000000
   11       16.697503     16.697504   0.000000   0.000000
   12       18.228474     18.228475   0.000000   0.000000
   13       19.611995     19.611996   0.000000   0.000000
   14       20.459320     20.459320   0.000000   0.000000
   15       20.545281     20.545282   0.000000   0.000000
   16       21.643107     21.643109   0.000000   0.000000
 
  0.2222222E+00  0.2222222E+00  0.3742002E-15  0.4629630E-02