       N       E                     dE             d eps       ncg     rms          rms(c)
DAV:   1    -0.309809205783E+03   -0.30981E+03   -0.12067E+04 10632   0.828E+02
DAV:   2    -0.373415336479E+03   -0.63606E+02   -0.57994E+02 10248   0.215E+02
DAV:   3    -0.376253428409E+03   -0.28381E+01   -0.28131E+01  9000   0.444E+01
DAV:   4    -0.376360508406E+03   -0.10708E+00   -0.10705E+00 10296   0.823E+00
DAV:   5    -0.376362043256E+03   -0.15348E-02   -0.15350E-02  9184   0.837E-01    0.496E+01
DAV:   6    -0.177896888841E+03    0.19847E+03   -0.48649E+01  7104   0.452E+01    0.296E+01
DAV:   7    -0.380579364249E+02    0.13984E+03   -0.20988E+02  9152   0.774E+01    0.104E+01
DAV:   8    -0.380100700183E+02    0.47866E-01   -0.71507E+00  9200   0.165E+01    0.426E+00
DAV:   9    -0.368384570266E+02    0.11716E+01   -0.19848E+00  9160   0.854E+00    0.109E+00
DAV:  10    -0.368630312341E+02   -0.24574E-01   -0.15120E-01  7672   0.306E+00    0.445E-01
DAV:  11    -0.368876228768E+02   -0.24592E-01   -0.79248E-02  7360   0.222E+00    0.344E-01
DAV:  12    -0.369112402150E+02   -0.23617E-01   -0.11879E-02  7368   0.102E+00    0.158E-01
DAV:  13    -0.369114006628E+02   -0.16045E-03   -0.32405E-03  8080   0.415E-01    0.430E-02
DAV:  14    -0.369116144769E+02   -0.21381E-03   -0.38805E-04  8168   0.154E-01    0.240E-02
DAV:  15    -0.369116488888E+02   -0.34412E-04   -0.25859E-05  8104   0.429E-02    0.164E-02
DAV:  16    -0.369116812693E+02   -0.32381E-04   -0.31780E-05  7464   0.436E-02    0.361E-03
DAV:  17    -0.369116840100E+02   -0.27408E-05   -0.52861E-06  8352   0.145E-02    0.165E-03
DAV:  18    -0.369116842080E+02   -0.19802E-06   -0.32162E-07  6104   0.467E-03
   1 F= -.30492697E+02 E0= -.30492697E+02  d E =-.304927E+02  mag=     0.0000
       N       E                     dE             d eps       ncg     rms          rms(c)
DAV:   1    -0.369135026842E+02   -0.18187E-02   -0.29122E-02  7904   0.131E+00    0.140E-01
DAV:   2    -0.369129886641E+02    0.51402E-03   -0.67827E-04  9040   0.164E-01    0.732E-02
DAV:   3    -0.369128021552E+02    0.18651E-03   -0.42467E-04  8472   0.122E-01    0.628E-03
DAV:   4    -0.369128033529E+02   -0.11976E-05   -0.91696E-06  8392   0.197E-02    0.312E-03
DAV:   5    -0.369128040115E+02   -0.65870E-06   -0.36694E-07  5928   0.551E-03
   2 F= -.30541127E+02 E0= -.30541127E+02  d E =-.484308E-01  mag=     0.0000
       N       E                     dE             d eps       ncg     rms          rms(c)
DAV:   1    -0.369010830195E+02    0.11720E-01   -0.26596E-01  7912   0.398E+00    0.424E-01
DAV:   2    -0.368963717559E+02    0.47113E-02   -0.62945E-03  8928   0.501E-01    0.222E-01
DAV:   3    -0.368946489283E+02    0.17228E-02   -0.38711E-03  8456   0.371E-01    0.191E-02
DAV:   4    -0.368946551413E+02   -0.62130E-05   -0.84895E-05  8440   0.601E-02    0.954E-03
DAV:   5    -0.368946565396E+02   -0.13982E-05   -0.34725E-06  7744   0.164E-02    0.850E-04
DAV:   6    -0.368946565626E+02   -0.23014E-07   -0.93124E-08  6888   0.223E-03
   3 F= -.30663517E+02 E0= -.30663517E+02  d E =-.170820E+00  mag=     0.0000
       N       E                     dE             d eps       ncg     rms          rms(c)
DAV:   1    -0.367824817726E+02    0.11217E+00   -0.10914E+00  7904   0.820E+00    0.860E-01
DAV:   2    -0.367632236816E+02    0.19258E-01   -0.26307E-02  8936   0.103E+00    0.450E-01
DAV:   3    -0.367561796144E+02    0.70441E-02   -0.15687E-02  8336   0.758E-01    0.394E-02
DAV:   4    -0.367561973994E+02   -0.17785E-04   -0.35978E-04  8352   0.124E-01    0.198E-02
DAV:   5    -0.367561974143E+02   -0.14897E-07   -0.13974E-05  7696   0.336E-02    0.195E-03
DAV:   6    -0.367561976736E+02   -0.25933E-06   -0.43976E-07  7504   0.530E-03
   4 F= -.30799902E+02 E0= -.30799902E+02  d E =-.307206E+00  mag=     0.0000
       N       E                     dE             d eps       ncg     rms          rms(c)
DAV:   1    -0.366646172619E+02    0.91580E-01   -0.17550E-01  7880   0.331E+00    0.344E-01
DAV:   2    -0.366615080278E+02    0.31092E-02   -0.41842E-03  8744   0.416E-01    0.180E-01
DAV:   3    -0.366603727466E+02    0.11353E-02   -0.25407E-03  8344   0.306E-01    0.159E-02
DAV:   4    -0.366603773237E+02   -0.45771E-05   -0.59743E-05  8440   0.506E-02    0.811E-03
DAV:   5    -0.366603789433E+02   -0.16196E-05   -0.24053E-06  7768   0.140E-02    0.152E-03
DAV:   6    -0.366603789436E+02   -0.26068E-09   -0.80779E-08  5960   0.274E-03
   5 F= -.30811597E+02 E0= -.30811597E+02  d E =-.318900E+00  mag=     0.0000
       N       E                     dE             d eps       ncg     rms          rms(c)
DAV:   1    -0.366861644739E+02   -0.25786E-01   -0.51682E-01  7280   0.484E+00    0.507E-01
DAV:   2    -0.366742481748E+02    0.11916E-01   -0.14974E-02  7536   0.789E-01    0.284E-01
DAV:   3    -0.366690170723E+02    0.52311E-02   -0.13208E-02  8320   0.702E-01    0.544E-02
DAV:   4    -0.366690343142E+02   -0.17242E-04   -0.50646E-04  8384   0.143E-01    0.413E-02
DAV:   5    -0.366690199778E+02    0.14336E-04   -0.62267E-05  7560   0.616E-02    0.657E-03
DAV:   6    -0.366690235671E+02   -0.35893E-05   -0.56169E-06  9048   0.174E-02    0.619E-03
DAV:   7    -0.366690250228E+02   -0.14557E-05   -0.19074E-06  7992   0.865E-03    0.128E-03
DAV:   8    -0.366690252834E+02   -0.26061E-06   -0.18133E-07  4112   0.323E-03
   6 F= -.30875562E+02 E0= -.30875562E+02  d E =-.639653E-01  mag=     0.0000
       N       E                     dE             d eps       ncg     rms          rms(c)
DAV:   1    -0.368467113425E+02   -0.17769E+00   -0.48135E+00  7152   0.149E+01    0.156E+00
DAV:   2    -0.367368491392E+02    0.10986E+00   -0.14028E-01  7464   0.243E+00    0.868E-01
DAV:   3    -0.366898050319E+02    0.47044E-01   -0.11421E-01  8128   0.209E+00    0.152E-01
DAV:   4    -0.366899452120E+02   -0.14018E-03   -0.46797E-03  8272   0.431E-01    0.991E-02
DAV:   5    -0.366898806671E+02    0.64545E-04   -0.44516E-04  7632   0.168E-01    0.117E-02
DAV:   6    -0.366898889080E+02   -0.82409E-05   -0.10462E-05  9512   0.229E-02    0.866E-03
DAV:   7    -0.366898973291E+02   -0.84210E-05   -0.61877E-06  7336   0.165E-02    0.283E-03
DAV:   8    -0.366898983841E+02   -0.10551E-05   -0.54457E-07  6896   0.652E-03    0.102E-03
DAV:   9    -0.366898983720E+02    0.12171E-07   -0.34577E-08  3736   0.157E-03
   7 F= -.31063028E+02 E0= -.31063028E+02  d E =-.251431E+00  mag=     0.0000
       N       E                     dE             d eps       ncg     rms          rms(c)
DAV:   1    -0.373605367876E+02   -0.67064E+00   -0.20776E+01  7104   0.318E+01    0.330E+00
DAV:   2    -0.368990291527E+02    0.46151E+00   -0.62506E-01  7512   0.519E+00    0.182E+00
DAV:   3    -0.367065133953E+02    0.19252E+00   -0.43663E-01  8064   0.421E+00    0.279E-01
DAV:   4    -0.367070806883E+02   -0.56729E-03   -0.19921E-02  8272   0.882E-01    0.151E-01
DAV:   5    -0.367068342749E+02    0.24641E-03   -0.12218E-03  8016   0.281E-01    0.195E-02
DAV:   6    -0.367068397434E+02   -0.54685E-05   -0.33708E-05  8984   0.411E-02    0.126E-02
DAV:   7    -0.367068580894E+02   -0.18346E-04   -0.12933E-05  7472   0.239E-02    0.637E-03
DAV:   8    -0.367068630127E+02   -0.49233E-05   -0.33425E-06  8048   0.152E-02    0.919E-04
DAV:   9    -0.367068630718E+02   -0.59179E-07   -0.91842E-08  4728   0.209E-03
   8 F= -.31416044E+02 E0= -.31416044E+02  d E =-.604447E+00  mag=     0.0000
       N       E                     dE             d eps       ncg     rms          rms(c)
DAV:   1    -0.392566424579E+02   -0.25498E+01   -0.97988E+01  7104   0.733E+01    0.735E+00
DAV:   2    -0.373659363553E+02    0.18907E+01   -0.31634E+00  7856   0.122E+01    0.402E+00
DAV:   3    -0.365555722510E+02    0.81036E+00   -0.16390E+00  8448   0.861E+00    0.515E-01
DAV:   4    -0.365563218864E+02   -0.74964E-03   -0.79826E-02  8672   0.179E+00    0.227E-01
DAV:   5    -0.365548541144E+02    0.14678E-02   -0.29673E-03  8720   0.433E-01    0.360E-02
DAV:   6    -0.365548363656E+02    0.17749E-04   -0.15354E-04  8768   0.829E-02    0.213E-02
DAV:   7    -0.365548634640E+02   -0.27098E-04   -0.29296E-05  7920   0.425E-02    0.598E-03
DAV:   8    -0.365548625447E+02    0.91920E-06   -0.16409E-06  8128   0.100E-02
   9 F= -.31947666E+02 E0= -.31947666E+02  d E =-.113607E+01  mag=    -0.0000
       N       E                     dE             d eps       ncg     rms          rms(c)
DAV:   1    -0.369806476018E+02   -0.42578E+00   -0.60710E+02  7808   0.214E+02    0.176E+01
DAV:   2    -0.353745286406E+02    0.16061E+01   -0.42928E+01  9776   0.423E+01    0.109E+01
DAV:   3    -0.320543486059E+02    0.33202E+01   -0.10005E+01  9056   0.218E+01    0.255E+00
DAV:   4    -0.318853381175E+02    0.16901E+00   -0.86010E-01  8256   0.652E+00    0.105E+00
DAV:   5    -0.318516025437E+02    0.33736E-01   -0.34903E-02  8784   0.143E+00    0.240E-01
DAV:   6    -0.318497925774E+02    0.18100E-02   -0.53268E-03  8704   0.514E-01    0.302E-02
DAV:   7    -0.318499033161E+02   -0.11074E-03   -0.29918E-04  8464   0.120E-01    0.489E-02
DAV:   8    -0.318498166804E+02    0.86636E-04   -0.90255E-05  8640   0.673E-02    0.586E-03
DAV:   9    -0.318498162482E+02    0.43220E-06   -0.41374E-06  9000   0.152E-02
  10 F= -.28656385E+02 E0= -.28656385E+02  d E =0.215521E+01  mag=     0.0000
       N       E                     dE             d eps       ncg     rms          rms(c)
DAV:   1    -0.543379391959E+02   -0.22488E+02   -0.58216E+02  7104   0.147E+02    0.152E+01
DAV:   2    -0.430668549330E+02    0.11271E+02   -0.23395E+01  9536   0.336E+01    0.967E+00
DAV:   3    -0.367532012877E+02    0.63137E+01   -0.19880E+01  9616   0.265E+01    0.314E+00
DAV:   4    -0.365201334331E+02    0.23307E+00   -0.16259E+00  8224   0.713E+00    0.140E+00
DAV:   5    -0.365002332835E+02    0.19900E-01   -0.43583E-02  8704   0.153E+00    0.809E-01
DAV:   6    -0.364905406995E+02    0.96926E-02   -0.41906E-02  8752   0.156E+00    0.138E-01
DAV:   7    -0.364903105042E+02    0.23020E-03   -0.22584E-03  8656   0.321E-01    0.647E-02
DAV:   8    -0.364902422665E+02    0.68238E-04   -0.58900E-05  8832   0.540E-02    0.366E-02
DAV:   9    -0.364902011867E+02    0.41080E-04   -0.67284E-05  8456   0.582E-02    0.242E-03
DAV:  10    -0.364902016578E+02   -0.47103E-06   -0.29473E-06  8672   0.122E-02
  11 F= -.31985208E+02 E0= -.31985208E+02  d E =-.117361E+01  mag=     0.0000
       N       E                     dE             d eps       ncg     rms          rms(c)
DAV:   1    -0.365554600160E+02   -0.65259E-01   -0.11022E-01  8592   0.280E+00    0.239E-01
DAV:   2    -0.365546665129E+02    0.79350E-03   -0.16813E-03  8832   0.280E-01    0.138E-01
DAV:   3    -0.365542292907E+02    0.43722E-03   -0.47339E-04  8064   0.146E-01    0.100E-02
DAV:   4    -0.365542250724E+02    0.42183E-05   -0.13720E-05  8704   0.246E-02    0.560E-03
DAV:   5    -0.365542223438E+02    0.27286E-05   -0.20969E-06  8288   0.108E-02    0.891E-04
DAV:   6    -0.365542223189E+02    0.24971E-07   -0.14449E-07  3888   0.282E-03
  12 F= -.31982645E+02 E0= -.31982645E+02  d E =0.256330E-02  mag=     0.0000
       N       E                     dE             d eps       ncg     rms          rms(c)
DAV:   1    -0.365179867568E+02    0.36236E-01   -0.41810E-02  8656   0.173E+00    0.148E-01
DAV:   2    -0.365176922642E+02    0.29449E-03   -0.66085E-04  8736   0.174E-01    0.851E-02
DAV:   3    -0.365175385599E+02    0.15370E-03   -0.17769E-04  8064   0.900E-02    0.620E-03
DAV:   4    -0.365175380909E+02    0.46893E-06   -0.49840E-06  8576   0.152E-02
  13 F= -.31986907E+02 E0= -.31986907E+02  d E =-.169895E-02  mag=     0.0000
       N       E                     dE             d eps       ncg     rms          rms(c)
DAV:   1    -0.365086217845E+02    0.89168E-02   -0.22469E-01  7120   0.335E+00    0.338E-01
DAV:   2    -0.365041269285E+02    0.44949E-02   -0.70093E-03  9136   0.560E-01    0.192E-01
DAV:   3    -0.365020949210E+02    0.20320E-02   -0.44739E-03  8720   0.441E-01    0.315E-02
DAV:   4    -0.365020886406E+02    0.62804E-05   -0.20156E-04  8512   0.918E-02    0.187E-02
DAV:   5    -0.365020819960E+02    0.66446E-05   -0.14079E-05  8888   0.294E-02    0.253E-03
DAV:   6    -0.365020819671E+02    0.28922E-07   -0.51812E-07  5584   0.515E-03
  14 F= -.31994561E+02 E0= -.31994561E+02  d E =-.765420E-02  mag=     0.0000
       N       E                     dE             d eps       ncg     rms          rms(c)
DAV:   1    -0.364898572243E+02    0.12225E-01   -0.70062E-01  7264   0.593E+00    0.597E-01
DAV:   2    -0.364760685856E+02    0.13789E-01   -0.21646E-02  9152   0.986E-01    0.340E-01
DAV:   3    -0.364698304230E+02    0.62382E-02   -0.14005E-02  8864   0.776E-01    0.554E-02
DAV:   4    -0.364698050415E+02    0.25381E-04   -0.60322E-04  8288   0.160E-01    0.322E-02
DAV:   5    -0.364697841296E+02    0.20912E-04   -0.42579E-05  9088   0.510E-02    0.463E-03
DAV:   6    -0.364697839316E+02    0.19794E-06   -0.15099E-06  7592   0.865E-03
  15 F= -.32003072E+02 E0= -.32003072E+02  d E =-.161656E-01  mag=     0.0000
       N       E                     dE             d eps       ncg     rms          rms(c)
DAV:   1    -0.364631617668E+02    0.66224E-02   -0.28915E+00  7312   0.121E+01    0.121E+00
DAV:   2    -0.364085927258E+02    0.54569E-01   -0.87847E-02  9216   0.199E+00    0.689E-01
DAV:   3    -0.363837345543E+02    0.24858E-01   -0.55499E-02  8816   0.155E+00    0.108E-01
DAV:   4    -0.363836146149E+02    0.11994E-03   -0.22606E-03  8576   0.315E-01    0.596E-02
DAV:   5    -0.363835378033E+02    0.76812E-04   -0.15446E-04  9040   0.965E-02    0.885E-03
DAV:   6    -0.363835367585E+02    0.10448E-05   -0.50349E-06  9056   0.155E-02    0.423E-03
DAV:   7    -0.363835373308E+02   -0.57227E-06   -0.34964E-07  5392   0.479E-03
  16 F= -.31999452E+02 E0= -.31999452E+02  d E =-.125450E-01  mag=    -0.0000
       N       E                     dE             d eps       ncg     rms          rms(c)
DAV:   1    -0.364780030781E+02   -0.94466E-01   -0.12287E+00  7296   0.772E+00    0.785E-01
DAV:   2    -0.364536625512E+02    0.24341E-01   -0.35910E-02  9120   0.127E+00    0.446E-01
DAV:   3    -0.364427646093E+02    0.10898E-01   -0.24236E-02  8832   0.102E+00    0.729E-02
DAV:   4    -0.364427248690E+02    0.39740E-04   -0.10181E-03  8240   0.206E-01    0.469E-02
DAV:   5    -0.364426767635E+02    0.48106E-04   -0.81173E-05  9216   0.694E-02    0.733E-03
DAV:   6    -0.364426755575E+02    0.12060E-05   -0.49702E-06  9072   0.158E-02    0.320E-03
DAV:   7    -0.364426756175E+02   -0.60022E-07   -0.42333E-07  5208   0.539E-03
  17 F= -.32005081E+02 E0= -.32005081E+02  d E =-.181746E-01  mag=     0.0000
       N       E                     dE             d eps       ncg     rms          rms(c)
DAV:   1    -0.363919595635E+02    0.50716E-01   -0.16412E-01  7440   0.302E+00    0.332E-01
DAV:   2    -0.363883783010E+02    0.35813E-02   -0.58115E-03  8032   0.514E-01    0.177E-01
DAV:   3    -0.363869643187E+02    0.14140E-02   -0.30302E-03  8496   0.360E-01    0.155E-02
DAV:   4    -0.363869675926E+02   -0.32740E-05   -0.11155E-04  8896   0.685E-02    0.691E-03
DAV:   5    -0.363869664455E+02    0.11472E-05   -0.26345E-06  8480   0.145E-02    0.125E-03
DAV:   6    -0.363869664102E+02    0.35253E-07   -0.42215E-08  4272   0.158E-03
  18 F= -.32007683E+02 E0= -.32007683E+02  d E =-.260163E-02  mag=     0.0000
       N       E                     dE             d eps       ncg     rms          rms(c)
DAV:   1    -0.363974485578E+02   -0.10482E-01   -0.50647E-03  7456   0.528E-01    0.582E-02
DAV:   2    -0.363973383864E+02    0.11017E-03   -0.17810E-04  7920   0.901E-02    0.312E-02
DAV:   3    -0.363972940409E+02    0.44345E-04   -0.94306E-05  8552   0.634E-02    0.275E-03
DAV:   4    -0.363972937140E+02    0.32694E-06   -0.34973E-06  8792   0.121E-02
  19 F= -.32007808E+02 E0= -.32007808E+02  d E =-.272623E-02  mag=     0.0000
