 vasp.5.4.4.18Apr17-6-g9f103f2a35 (build Jul  5 2023 12:24:19) complex           
 executed on NVIDIA22.7_CrayMPICH date 2023.10.16  23:30:57
 running on   16 total cores
 distrk:  each k-point on   16 cores,    1 groups
 distr:  one band on NCORES_PER_BAND=   4 cores,    4 groups


--------------------------------------------------------------------------------------------------------


 INCAR:
 POTCAR:   PAW_PBE C 08Apr2002                    
 POTCAR:   PAW_PBE C 08Apr2002                    
  local pseudopotential read in
  atomic valenz-charges read in
  non local Contribution for L=            0  read in
    real space projection operators read in
  non local Contribution for L=            0  read in
    real space projection operators read in
  non local Contribution for L=            1  read in
    real space projection operators read in
  non local Contribution for L=            1  read in
    real space projection operators read in
    PAW grid and wavefunctions read in
 
   number of l-projection  operators is LMAX  =            4
   number of lm-projection operators is LMMAX =            8
 
 PAW_PBE C 08Apr2002                    :
 energy of atom  1       EATOM= -147.1560
 kinetic energy error for atom=    0.0288 (will be added to EATOM!!)
 
 
 POSCAR: C4                                      
  positions in direct lattice
  No initial velocities read in
 exchange correlation table for  LEXCH =        8
   RHO(1)=    0.500       N(1)  =     2000
   RHO(2)=  100.500       N(2)  =     4000
 


--------------------------------------------------------------------------------------------------------


 ion  position               nearest neighbor table
   1  0.000  0.000  0.250-   3 1.42   3 1.42   3 1.42
   2  0.000  0.000  0.750-   4 1.42   4 1.42   4 1.42
   3  0.333  0.667  0.250-   1 1.42   1 1.42   1 1.42
   4  0.667  0.333  0.750-   2 1.42   2 1.42   2 1.42
 
  LATTYP: Found a hexagonal cell.
 ALAT       =     2.4672910232
 C/A-ratio  =     3.1626074616
  
  Lattice vectors:
  
 A1 = (   2.4672910000,   0.0000000000,   0.0000000000)
 A2 = (  -1.2336460000,   2.1367370000,   0.0000000000)
 A3 = (   0.0000000000,   0.0000000000,   7.8030730000)


Analysis of symmetry for initial positions (statically):
=====================================================================
 Subroutine PRICEL returns:
 Original cell was already a primitive cell.
 

 Routine SETGRP: Setting up the symmetry group for a 
 hexagonal supercell.


 Subroutine GETGRP returns: Found 24 space group operations
 (whereof 12 operations were pure point group operations)
 out of a pool of 24 trial point group operations.


The static configuration has the point symmetry D_3d.
 The point group associated with its full space group is D_6h.


Analysis of symmetry for dynamics (positions and initial velocities):
=====================================================================
 Subroutine PRICEL returns:
 Original cell was already a primitive cell.
 

 Routine SETGRP: Setting up the symmetry group for a 
 hexagonal supercell.


 Subroutine GETGRP returns: Found 24 space group operations
 (whereof 12 operations were pure point group operations)
 out of a pool of 24 trial point group operations.


The dynamic configuration has the point symmetry D_3d.
 The point group associated with its full space group is D_6h.


Analysis of structural, dynamic, and magnetic symmetry:
=====================================================================
 Subroutine PRICEL returns:
 Original cell was already a primitive cell.
 

 Routine SETGRP: Setting up the symmetry group for a 
 hexagonal supercell.


 Subroutine GETGRP returns: Found 24 space group operations
 (whereof 12 operations were pure point group operations)
 out of a pool of 24 trial point group operations.


The magnetic configuration has the point symmetry D_3d.
 The point group associated with its full space group is D_6h.


 Subroutine INISYM returns: Found 24 space group operations
 (whereof 12 operations are pure point group operations),
 and found     1 'primitive' translations

 
 
 KPOINTS: kpt_density=6000                        

Automatic generation of k-mesh.
Space group operators:
 irot       det(A)        alpha          n_x          n_y          n_z        tau_x        tau_y        tau_z
    1     1.000000     0.000000     1.000000     0.000000     0.000000     0.000000     0.000000     0.000000
    2    -1.000000     0.000000     1.000000     0.000000     0.000000     0.000000     0.000000     0.000000
    3     1.000000   120.000000     0.000000     0.000000    -1.000000     0.000000     0.000000     0.000000
    4    -1.000000   120.000000     0.000000     0.000000    -1.000000     0.000000     0.000000     0.000000
    5     1.000000   120.000000     0.000000     0.000000     1.000000     0.000000     0.000000     0.000000
    6    -1.000000   120.000000     0.000000     0.000000     1.000000     0.000000     0.000000     0.000000
    7     1.000000   180.000000     1.000000     0.000000     0.000000     0.000000     0.000000     0.000000
    8    -1.000000   180.000000     1.000000     0.000000     0.000000     0.000000     0.000000     0.000000
    9     1.000000   179.999999     0.500000    -0.866025     0.000000     0.000000     0.000000     0.000000
   10    -1.000000   179.999999     0.500000    -0.866025     0.000000     0.000000     0.000000     0.000000
   11     1.000000   180.000000    -0.500000    -0.866025     0.000000     0.000000     0.000000     0.000000
   12    -1.000000   180.000000    -0.500000    -0.866025     0.000000     0.000000     0.000000     0.000000
   13     1.000000    60.000000     0.000000     0.000000    -1.000000     0.000001     0.000000     0.500000
   14    -1.000000    60.000000     0.000000    -0.000000    -1.000000     0.000001     0.000000     0.500000
   15     1.000000   180.000000     0.000000     0.000000     1.000000     0.000000     0.000000     0.500000
   16    -1.000000   180.000000     0.000000     0.000000     1.000000     0.000000     0.000000     0.500000
   17     1.000000    60.000000     0.000000     0.000000     1.000000     0.000000     0.000000     0.500000
   18    -1.000000    60.000000     0.000000     0.000000     1.000000     0.000000     0.000000     0.500000
   19     1.000000   180.000000     0.866026    -0.500000     0.000000     0.000000     0.000000     0.500000
   20    -1.000000   180.000000     0.866026    -0.500000     0.000000    -0.000000     0.000000     0.500000
   21     1.000000   180.000000     0.000000     1.000000     0.000000     0.000001     0.000000     0.500000
   22    -1.000000   180.000000     0.000000     1.000000     0.000000     0.000001     0.000000     0.500000
   23     1.000000   180.000000     0.866025     0.500000     0.000000     0.000000     0.000000     0.500000
   24    -1.000000   180.000000     0.866025     0.500000     0.000000     0.000000     0.000000     0.500000
 
 Subroutine IBZKPT returns following result:
 ===========================================
 
 Found    111 irreducible k-points:
 
 Following reciprocal coordinates:
            Coordinates               Weight
  0.000000  0.000000  0.000000      1.000000
  0.055556  0.000000  0.000000      6.000000
  0.111111  0.000000  0.000000      6.000000
  0.166667  0.000000  0.000000      6.000000
  0.222222  0.000000  0.000000      6.000000
  0.277778  0.000000  0.000000      6.000000
  0.333333  0.000000  0.000000      6.000000
  0.388889  0.000000  0.000000      6.000000
  0.444444  0.000000  0.000000      6.000000
  0.500000  0.000000  0.000000      3.000000
  0.055556  0.055556  0.000000      6.000000
  0.111111  0.055556  0.000000     12.000000
  0.166667  0.055556  0.000000     12.000000
  0.222222  0.055556  0.000000     12.000000
  0.277778  0.055556  0.000000     12.000000
  0.333333  0.055556  0.000000     12.000000
  0.388889  0.055556  0.000000     12.000000
  0.444444  0.055556  0.000000     12.000000
  0.111111  0.111111  0.000000      6.000000
  0.166667  0.111111  0.000000     12.000000
  0.222222  0.111111  0.000000     12.000000
  0.277778  0.111111  0.000000     12.000000
  0.333333  0.111111  0.000000     12.000000
  0.388889  0.111111  0.000000     12.000000
  0.444444  0.111111  0.000000      6.000000
  0.166667  0.166667  0.000000      6.000000
  0.222222  0.166667  0.000000     12.000000
  0.277778  0.166667  0.000000     12.000000
  0.333333  0.166667  0.000000     12.000000
  0.388889  0.166667  0.000000     12.000000
  0.222222  0.222222  0.000000      6.000000
  0.277778  0.222222  0.000000     12.000000
  0.333333  0.222222  0.000000     12.000000
  0.388889  0.222222  0.000000      6.000000
  0.277778  0.277778  0.000000      6.000000
  0.333333  0.277778  0.000000     12.000000
  0.333333  0.333333  0.000000      2.000000
  0.000000  0.000000  0.250000      2.000000
  0.055556  0.000000  0.250000     12.000000
  0.111111  0.000000  0.250000     12.000000
  0.166667  0.000000  0.250000     12.000000
  0.222222  0.000000  0.250000     12.000000
  0.277778  0.000000  0.250000     12.000000
  0.333333  0.000000  0.250000     12.000000
  0.388889  0.000000  0.250000     12.000000
  0.444444  0.000000  0.250000     12.000000
  0.500000  0.000000  0.250000      6.000000
  0.055556  0.055556  0.250000     12.000000
  0.111111  0.055556  0.250000     24.000000
  0.166667  0.055556  0.250000     24.000000
  0.222222  0.055556  0.250000     24.000000
  0.277778  0.055556  0.250000     24.000000
  0.333333  0.055556  0.250000     24.000000
  0.388889  0.055556  0.250000     24.000000
  0.444444  0.055556  0.250000     24.000000
  0.111111  0.111111  0.250000     12.000000
  0.166667  0.111111  0.250000     24.000000
  0.222222  0.111111  0.250000     24.000000
  0.277778  0.111111  0.250000     24.000000
  0.333333  0.111111  0.250000     24.000000
  0.388889  0.111111  0.250000     24.000000
  0.444444  0.111111  0.250000     12.000000
  0.166667  0.166667  0.250000     12.000000
  0.222222  0.166667  0.250000     24.000000
  0.277778  0.166667  0.250000     24.000000
  0.333333  0.166667  0.250000     24.000000
  0.388889  0.166667  0.250000     24.000000
  0.222222  0.222222  0.250000     12.000000
  0.277778  0.222222  0.250000     24.000000
  0.333333  0.222222  0.250000     24.000000
  0.388889  0.222222  0.250000     12.000000
  0.277778  0.277778  0.250000     12.000000
  0.333333  0.277778  0.250000     24.000000
  0.333333  0.333333  0.250000      4.000000
  0.000000  0.000000  0.500000      1.000000
  0.055556  0.000000  0.500000      6.000000
  0.111111  0.000000  0.500000      6.000000
  0.166667  0.000000  0.500000      6.000000
  0.222222  0.000000  0.500000      6.000000
  0.277778  0.000000  0.500000      6.000000
  0.333333  0.000000  0.500000      6.000000
  0.388889  0.000000  0.500000      6.000000
  0.444444  0.000000  0.500000      6.000000
  0.500000  0.000000  0.500000      3.000000
  0.055556  0.055556  0.500000      6.000000
  0.111111  0.055556  0.500000     12.000000
  0.166667  0.055556  0.500000     12.000000
  0.222222  0.055556  0.500000     12.000000
  0.277778  0.055556  0.500000     12.000000
  0.333333  0.055556  0.500000     12.000000
  0.388889  0.055556  0.500000     12.000000
  0.444444  0.055556  0.500000     12.000000
  0.111111  0.111111  0.500000      6.000000
  0.166667  0.111111  0.500000     12.000000
  0.222222  0.111111  0.500000     12.000000
  0.277778  0.111111  0.500000     12.000000
  0.333333  0.111111  0.500000     12.000000
  0.388889  0.111111  0.500000     12.000000
  0.444444  0.111111  0.500000      6.000000
  0.166667  0.166667  0.500000      6.000000
  0.222222  0.166667  0.500000     12.000000
  0.277778  0.166667  0.500000     12.000000
  0.333333  0.166667  0.500000     12.000000
  0.388889  0.166667  0.500000     12.000000
  0.222222  0.222222  0.500000      6.000000
  0.277778  0.222222  0.500000     12.000000
  0.333333  0.222222  0.500000     12.000000
  0.388889  0.222222  0.500000      6.000000
  0.277778  0.277778  0.500000      6.000000
  0.333333  0.277778  0.500000     12.000000
  0.333333  0.333333  0.500000      2.000000
 
 Following cartesian coordinates:
            Coordinates               Weight
  0.000000  0.000000  0.000000      1.000000
  0.022517  0.013000  0.000000      6.000000
  0.045034  0.026000  0.000000      6.000000
  0.067550  0.039000  0.000000      6.000000
  0.090067  0.052000  0.000000      6.000000
  0.112584  0.065000  0.000000      6.000000
  0.135101  0.078001  0.000000      6.000000
  0.157618  0.091001  0.000000      6.000000
  0.180135  0.104001  0.000000      6.000000
  0.202651  0.117001  0.000000      3.000000
  0.022517  0.039000  0.000000      6.000000
  0.045034  0.052000  0.000000     12.000000
  0.067550  0.065000  0.000000     12.000000
  0.090067  0.078001  0.000000     12.000000
  0.112584  0.091001  0.000000     12.000000
  0.135101  0.104001  0.000000     12.000000
  0.157618  0.117001  0.000000     12.000000
  0.180135  0.130001  0.000000     12.000000
  0.045034  0.078001  0.000000      6.000000
  0.067550  0.091001  0.000000     12.000000
  0.090067  0.104001  0.000000     12.000000
  0.112584  0.117001  0.000000     12.000000
  0.135101  0.130001  0.000000     12.000000
  0.157618  0.143001  0.000000     12.000000
  0.180135  0.156001  0.000000      6.000000
  0.067550  0.117001  0.000000      6.000000
  0.090067  0.130001  0.000000     12.000000
  0.112584  0.143001  0.000000     12.000000
  0.135101  0.156001  0.000000     12.000000
  0.157618  0.169001  0.000000     12.000000
  0.090067  0.156001  0.000000      6.000000
  0.112584  0.169001  0.000000     12.000000
  0.135101  0.182001  0.000000     12.000000
  0.157618  0.195001  0.000000      6.000000
  0.112584  0.195001  0.000000      6.000000
  0.135101  0.208002  0.000000     12.000000
  0.135101  0.234002  0.000000      2.000000
  0.000000  0.000000  0.032039      2.000000
  0.022517  0.013000  0.032039     12.000000
  0.045034  0.026000  0.032039     12.000000
  0.067550  0.039000  0.032039     12.000000
  0.090067  0.052000  0.032039     12.000000
  0.112584  0.065000  0.032039     12.000000
  0.135101  0.078001  0.032039     12.000000
  0.157618  0.091001  0.032039     12.000000
  0.180135  0.104001  0.032039     12.000000
  0.202651  0.117001  0.032039      6.000000
  0.022517  0.039000  0.032039     12.000000
  0.045034  0.052000  0.032039     24.000000
  0.067550  0.065000  0.032039     24.000000
  0.090067  0.078001  0.032039     24.000000
  0.112584  0.091001  0.032039     24.000000
  0.135101  0.104001  0.032039     24.000000
  0.157618  0.117001  0.032039     24.000000
  0.180135  0.130001  0.032039     24.000000
  0.045034  0.078001  0.032039     12.000000
  0.067550  0.091001  0.032039     24.000000
  0.090067  0.104001  0.032039     24.000000
  0.112584  0.117001  0.032039     24.000000
  0.135101  0.130001  0.032039     24.000000
  0.157618  0.143001  0.032039     24.000000
  0.180135  0.156001  0.032039     12.000000
  0.067550  0.117001  0.032039     12.000000
  0.090067  0.130001  0.032039     24.000000
  0.112584  0.143001  0.032039     24.000000
  0.135101  0.156001  0.032039     24.000000
  0.157618  0.169001  0.032039     24.000000
  0.090067  0.156001  0.032039     12.000000
  0.112584  0.169001  0.032039     24.000000
  0.135101  0.182001  0.032039     24.000000
  0.157618  0.195001  0.032039     12.000000
  0.112584  0.195001  0.032039     12.000000
  0.135101  0.208002  0.032039     24.000000
  0.135101  0.234002  0.032039      4.000000
  0.000000  0.000000  0.064077      1.000000
  0.022517  0.013000  0.064077      6.000000
  0.045034  0.026000  0.064077      6.000000
  0.067550  0.039000  0.064077      6.000000
  0.090067  0.052000  0.064077      6.000000
  0.112584  0.065000  0.064077      6.000000
  0.135101  0.078001  0.064077      6.000000
  0.157618  0.091001  0.064077      6.000000
  0.180135  0.104001  0.064077      6.000000
  0.202651  0.117001  0.064077      3.000000
  0.022517  0.039000  0.064077      6.000000
  0.045034  0.052000  0.064077     12.000000
  0.067550  0.065000  0.064077     12.000000
  0.090067  0.078001  0.064077     12.000000
  0.112584  0.091001  0.064077     12.000000
  0.135101  0.104001  0.064077     12.000000
  0.157618  0.117001  0.064077     12.000000
  0.180135  0.130001  0.064077     12.000000
  0.045034  0.078001  0.064077      6.000000
  0.067550  0.091001  0.064077     12.000000
  0.090067  0.104001  0.064077     12.000000
  0.112584  0.117001  0.064077     12.000000
  0.135101  0.130001  0.064077     12.000000
  0.157618  0.143001  0.064077     12.000000
  0.180135  0.156001  0.064077      6.000000
  0.067550  0.117001  0.064077      6.000000
  0.090067  0.130001  0.064077     12.000000
  0.112584  0.143001  0.064077     12.000000
  0.135101  0.156001  0.064077     12.000000
  0.157618  0.169001  0.064077     12.000000
  0.090067  0.156001  0.064077      6.000000
  0.112584  0.169001  0.064077     12.000000
  0.135101  0.182001  0.064077     12.000000
  0.157618  0.195001  0.064077      6.000000
  0.112584  0.195001  0.064077      6.000000
  0.135101  0.208002  0.064077     12.000000
  0.135101  0.234002  0.064077      2.000000
 
 TETIRR: Found   1318 inequivalent tetrahedra from     7776


--------------------------------------------------------------------------------------------------------




 Dimension of arrays:
   k-points           NKPTS =    111   k-points in BZ     NKDIM =    111   number of bands    NBANDS=     16
   number of dos      NEDOS =    301   number of ions     NIONS =      4
   non local maximal  LDIM  =      4   non local SUM 2l+1 LMDIM =      8
   total plane-waves  NPLWV =  13824
   max r-space proj   IRMAX =      1   max aug-charges    IRDMAX=   4165
   dimension x,y,z NGX =    16 NGY =   16 NGZ =   54
   dimension x,y,z NGXF=    32 NGYF=   32 NGZF=  108
   support grid    NGXF=    32 NGYF=   32 NGZF=  108
   ions per type =               4
   NGX,Y,Z   is equivalent  to a cutoff of  10.78, 10.78, 11.50 a.u.
   NGXF,Y,Z  is equivalent  to a cutoff of  21.56, 21.56, 23.01 a.u.

 SYSTEM =  unknown system                          
 POSCAR =  C4                                      

 Startparameter for this run:
   NWRITE =      0    write-flag & timer
   PREC   = accura    normal or accurate (medium, high low for compatibility)
   ISTART =      0    job   : 0-new  1-cont  2-samecut
   ICHARG =      0    charge: 1-file 2-atom 10-const
   ISPIN  =      2    spin polarized calculation?
   LNONCOLLINEAR =      F non collinear calculations
   LSORBIT =      F    spin-orbit coupling
   INIWAV =      1    electr: 0-lowe 1-rand  2-diag
   LASPH  =      F    aspherical Exc in radial PAW
   METAGGA=      F    non-selfconsistent MetaGGA calc.

 Electronic Relaxation 1
   ENCUT  =  400.0 eV  29.40 Ry    5.42 a.u.   4.02  4.02 12.72*2*pi/ulx,y,z
   ENINI  =  400.0     initial cutoff
   ENAUG  =  644.9 eV  augmentation charge cutoff
   NELM   =     60;   NELMIN=  2; NELMDL= -5     # of ELM steps 
   EDIFF  = 0.1E-05   stopping-criterion for ELM
   LREAL  =      F    real-space projection
   NLSPLINE    = F    spline interpolate recip. space projectors
   LCOMPAT=      F    compatible to vasp.4.4
   GGA_COMPAT  = T    GGA compatible to vasp.4.4-vasp.4.6
   LMAXPAW     = -100 max onsite density
   LMAXMIX     =    2 max onsite mixed and CHGCAR
   VOSKOWN=      0    Vosko Wilk Nusair interpolation
   ROPT   =    0.00000
 Ionic relaxation
   EDIFFG = 0.1E-03   stopping-criterion for IOM
   NSW    =    100    number of steps for IOM
   NBLOCK =      1;   KBLOCK =    100    inner block; outer block 
   IBRION =      2    ionic relax: 0-MD 1-quasi-New 2-CG
   NFREE  =      1    steps in history (QN), initial steepest desc. (CG)
   ISIF   =      3    stress and relaxation
   IWAVPR =     11    prediction:  0-non 1-charg 2-wave 3-comb
   ISYM   =      2    0-nonsym 1-usesym 2-fastsym
   LCORR  =      T    Harris-Foulkes like correction to forces

   POTIM  = 0.0150    time-step for ionic-motion
   TEIN   =    0.0    initial temperature
   TEBEG  =    0.0;   TEEND  =   0.0 temperature during run
   SMASS  =  -3.00    Nose mass-parameter (am)
   estimated Nose-frequenzy (Omega)   =  0.10E-29 period in steps =****** mass=  -0.139E-27a.u.
   SCALEE = 1.0000    scale energy and forces
   NPACO  =    256;   APACO  = 16.0  distance and # of slots for P.C.
   PSTRESS=  250.0 pullay stress

  Mass of Ions in am
   POMASS =  12.01
  Ionic Valenz
   ZVAL   =   4.00
  Atomic Wigner-Seitz radii
   RWIGS  =  -1.00
  virtual crystal weights 
   VCA    =   1.00
   NELECT =      16.0000    total number of electrons
   NUPDOWN=      -1.0000    fix difference up-down

 DOS related values:
   EMIN   =  10.00;   EMAX   =-10.00  energy-range for DOS
   EFERMI =   0.00
   ISMEAR =    -5;   SIGMA  =   0.01  broadening in eV -4-tet -1-fermi 0-gaus

 Electronic relaxation 2 (details)
   IALGO  =     38    algorithm
   LDIAG  =      T    sub-space diagonalisation (order eigenvalues)
   LSUBROT=      F    optimize rotation matrix (better conditioning)
   TURBO    =      0    0=normal 1=particle mesh
   IRESTART =      0    0=no restart 2=restart with 2 vectors
   NREBOOT  =      0    no. of reboots
   NMIN     =      0    reboot dimension
   EREF     =   0.00    reference energy to select bands
   IMIX   =      4    mixing-type and parameters
     AMIX     =   0.40;   BMIX     =  1.00
     AMIX_MAG =   1.60;   BMIX_MAG =  1.00
     AMIN     =   0.10
     WC   =   100.;   INIMIX=   1;  MIXPRE=   1;  MAXMIX= -45

 Intra band minimization:
   WEIMIN = 0.0010     energy-eigenvalue tresh-hold
   EBREAK =  0.16E-07  absolut break condition
   DEPER  =   0.30     relativ break condition  

   TIME   =   0.40     timestep for ELM

  volume/ion in A,a.u.               =      10.28        69.40
  Fermi-wavevector in a.u.,A,eV,Ry     =   1.195003  2.258229 19.429568  1.428033
  Thomas-Fermi vector in A             =   2.330980
 
 Write flags
   LWAVE        =      F    write WAVECAR
   LDOWNSAMPLE  =      F    k-point downsampling of WAVECAR
   LCHARG       =      F    write CHGCAR
   LVTOT        =      F    write LOCPOT, total local potential
   LVHAR        =      F    write LOCPOT, Hartree potential only
   LELF         =      F    write electronic localiz. function (ELF)
   LORBIT       =     11    0 simple, 1 ext, 2 COOP (PROOUT), +10 PAW based schemes


 Dipole corrections
   LMONO  =      F    monopole corrections only (constant potential shift)
   LDIPOL =      F    correct potential (dipole corrections)
   IDIPOL =      0    1-x, 2-y, 3-z, 4-all directions 
   EPSILON=  1.0000000 bulk dielectric constant

 Exchange correlation treatment:
   GGA     =    --    GGA type
   LEXCH   =     8    internal setting for exchange type
   VOSKOWN=      0    Vosko Wilk Nusair interpolation
   LHFCALC =     F    Hartree Fock is set to
   LHFONE  =     F    Hartree Fock one center treatment
   AEXX    =    0.0000 exact exchange contribution

 Linear response parameters
   LEPSILON=     F    determine dielectric tensor
   LRPA    =     F    only Hartree local field effects (RPA)
   LNABLA  =     F    use nabla operator in PAW spheres
   LVEL    =     F    velocity operator in full k-point grid
   LINTERFAST=   F  fast interpolation
   KINTER  =     0    interpolate to denser k-point grid
   CSHIFT  =0.1000    complex shift for real part using Kramers Kronig
   OMEGAMAX=  -1.0    maximum frequency
   DEG_THRESHOLD= 0.2000000E-02 threshold for treating states as degnerate
   RTIME   =   -0.100 relaxation time in fs
  (WPLASMAI=    0.000 imaginary part of plasma frequency in eV, 0.658/RTIME)
   DFIELD  = 0.0000000 0.0000000 0.0000000 field for delta impulse in time
 
 Orbital magnetization related:
   ORBITALMAG=     F  switch on orbital magnetization
   LCHIMAG   =     F  perturbation theory with respect to B field
   DQ        =  0.001000  dq finite difference perturbation B field
   LLRAUG    =     F  two centre corrections for induced B field



--------------------------------------------------------------------------------------------------------


 conjugate gradient relaxation of ions
 charge density and potential will be updated during run
 spin polarized calculation
 Variant of blocked Davidson
 Davidson routine will perform the subspace rotation
 perform sub-space diagonalisation
    after iterative eigenvector-optimisation
 modified Broyden-mixing scheme, WC =      100.0
 initial mixing is a Kerker type mixing with AMIX =  0.4000 and BMIX =      1.0000
 Hartree-type preconditioning will be used
 using additional bands             8
 reciprocal scheme for non local part
 calculate Harris-corrections to forces 
   (improved forces if not selfconsistent)
 use gradient corrections 
 use of overlap-Matrix (Vanderbilt PP)
 Fermi weights with tetrahedron method with Bloechl corrections


--------------------------------------------------------------------------------------------------------


  energy-cutoff  :      400.00
  volume of cell :       41.14
      direct lattice vectors                 reciprocal lattice vectors
     2.467291000  0.000000000  0.000000000     0.405302820  0.234001753 -0.000000000
    -1.233646000  2.136737000  0.000000000     0.000000000  0.468003315  0.000000000
     0.000000000  0.000000000  7.803073000     0.000000000 -0.000000000  0.128154639

  length of vectors
     2.467291000  2.467291523  7.803073000     0.468003415  0.468003315  0.128154639


 
 k-points in units of 2pi/SCALE and weight: kpt_density=6000                        
   0.00000000  0.00000000  0.00000000       0.001
   0.02251682  0.01300010  0.00000000       0.005
   0.04503365  0.02600019  0.00000000       0.005
   0.06755047  0.03900029  0.00000000       0.005
   0.09006729  0.05200039  0.00000000       0.005
   0.11258412  0.06500049  0.00000000       0.005
   0.13510094  0.07800058  0.00000000       0.005
   0.15761776  0.09100068  0.00000000       0.005
   0.18013459  0.10400078  0.00000000       0.005
   0.20265141  0.11700088  0.00000000       0.002
   0.02251682  0.03900028  0.00000000       0.005
   0.04503365  0.05200038  0.00000000       0.009
   0.06755047  0.06500048  0.00000000       0.009
   0.09006729  0.07800057  0.00000000       0.009
   0.11258412  0.09100067  0.00000000       0.009
   0.13510094  0.10400077  0.00000000       0.009
   0.15761776  0.11700087  0.00000000       0.009
   0.18013459  0.13000096  0.00000000       0.009
   0.04503365  0.07800056  0.00000000       0.005
   0.06755047  0.09100066  0.00000000       0.009
   0.09006729  0.10400076  0.00000000       0.009
   0.11258412  0.11700086  0.00000000       0.009
   0.13510094  0.13000095  0.00000000       0.009
   0.15761776  0.14300105  0.00000000       0.009
   0.18013459  0.15600115  0.00000000       0.005
   0.06755047  0.11700084  0.00000000       0.005
   0.09006729  0.13000094  0.00000000       0.009
   0.11258412  0.14300104  0.00000000       0.009
   0.13510094  0.15600114  0.00000000       0.009
   0.15761776  0.16900123  0.00000000       0.009
   0.09006729  0.15600113  0.00000000       0.005
   0.11258412  0.16900122  0.00000000       0.009
   0.13510094  0.18200132  0.00000000       0.009
   0.15761776  0.19500142  0.00000000       0.005
   0.11258412  0.19500141  0.00000000       0.005
   0.13510094  0.20800151  0.00000000       0.009
   0.13510094  0.23400169  0.00000000       0.002
   0.00000000  0.00000000  0.03203866       0.002
   0.02251682  0.01300010  0.03203866       0.009
   0.04503365  0.02600019  0.03203866       0.009
   0.06755047  0.03900029  0.03203866       0.009
   0.09006729  0.05200039  0.03203866       0.009
   0.11258412  0.06500049  0.03203866       0.009
   0.13510094  0.07800058  0.03203866       0.009
   0.15761776  0.09100068  0.03203866       0.009
   0.18013459  0.10400078  0.03203866       0.009
   0.20265141  0.11700088  0.03203866       0.005
   0.02251682  0.03900028  0.03203866       0.009
   0.04503365  0.05200038  0.03203866       0.019
   0.06755047  0.06500048  0.03203866       0.019
   0.09006729  0.07800057  0.03203866       0.019
   0.11258412  0.09100067  0.03203866       0.019
   0.13510094  0.10400077  0.03203866       0.019
   0.15761776  0.11700087  0.03203866       0.019
   0.18013459  0.13000096  0.03203866       0.019
   0.04503365  0.07800056  0.03203866       0.009
   0.06755047  0.09100066  0.03203866       0.019
   0.09006729  0.10400076  0.03203866       0.019
   0.11258412  0.11700086  0.03203866       0.019
   0.13510094  0.13000095  0.03203866       0.019
   0.15761776  0.14300105  0.03203866       0.019
   0.18013459  0.15600115  0.03203866       0.009
   0.06755047  0.11700084  0.03203866       0.009
   0.09006729  0.13000094  0.03203866       0.019
   0.11258412  0.14300104  0.03203866       0.019
   0.13510094  0.15600114  0.03203866       0.019
   0.15761776  0.16900123  0.03203866       0.019
   0.09006729  0.15600113  0.03203866       0.009
   0.11258412  0.16900122  0.03203866       0.019
   0.13510094  0.18200132  0.03203866       0.019
   0.15761776  0.19500142  0.03203866       0.009
   0.11258412  0.19500141  0.03203866       0.009
   0.13510094  0.20800151  0.03203866       0.019
   0.13510094  0.23400169  0.03203866       0.003
   0.00000000  0.00000000  0.06407732       0.001
   0.02251682  0.01300010  0.06407732       0.005
   0.04503365  0.02600019  0.06407732       0.005
   0.06755047  0.03900029  0.06407732       0.005
   0.09006729  0.05200039  0.06407732       0.005
   0.11258412  0.06500049  0.06407732       0.005
   0.13510094  0.07800058  0.06407732       0.005
   0.15761776  0.09100068  0.06407732       0.005
   0.18013459  0.10400078  0.06407732       0.005
   0.20265141  0.11700088  0.06407732       0.002
   0.02251682  0.03900028  0.06407732       0.005
   0.04503365  0.05200038  0.06407732       0.009
   0.06755047  0.06500048  0.06407732       0.009
   0.09006729  0.07800057  0.06407732       0.009
   0.11258412  0.09100067  0.06407732       0.009
   0.13510094  0.10400077  0.06407732       0.009
   0.15761776  0.11700087  0.06407732       0.009
   0.18013459  0.13000096  0.06407732       0.009
   0.04503365  0.07800056  0.06407732       0.005
   0.06755047  0.09100066  0.06407732       0.009
   0.09006729  0.10400076  0.06407732       0.009
   0.11258412  0.11700086  0.06407732       0.009
   0.13510094  0.13000095  0.06407732       0.009
   0.15761776  0.14300105  0.06407732       0.009
   0.18013459  0.15600115  0.06407732       0.005
   0.06755047  0.11700084  0.06407732       0.005
   0.09006729  0.13000094  0.06407732       0.009
   0.11258412  0.14300104  0.06407732       0.009
   0.13510094  0.15600114  0.06407732       0.009
   0.15761776  0.16900123  0.06407732       0.009
   0.09006729  0.15600113  0.06407732       0.005
   0.11258412  0.16900122  0.06407732       0.009
   0.13510094  0.18200132  0.06407732       0.009
   0.15761776  0.19500142  0.06407732       0.005
   0.11258412  0.19500141  0.06407732       0.005
   0.13510094  0.20800151  0.06407732       0.009
   0.13510094  0.23400169  0.06407732       0.002
 
 k-points in reciprocal lattice and weights: kpt_density=6000                        
   0.00000000  0.00000000  0.00000000       0.001
   0.05555556  0.00000000  0.00000000       0.005
   0.11111111  0.00000000  0.00000000       0.005
   0.16666667  0.00000000  0.00000000       0.005
   0.22222222  0.00000000  0.00000000       0.005
   0.27777778  0.00000000  0.00000000       0.005
   0.33333333  0.00000000  0.00000000       0.005
   0.38888889  0.00000000  0.00000000       0.005
   0.44444444  0.00000000  0.00000000       0.005
   0.50000000  0.00000000  0.00000000       0.002
   0.05555556  0.05555556  0.00000000       0.005
   0.11111111  0.05555556  0.00000000       0.009
   0.16666667  0.05555556  0.00000000       0.009
   0.22222222  0.05555556  0.00000000       0.009
   0.27777778  0.05555556  0.00000000       0.009
   0.33333333  0.05555556  0.00000000       0.009
   0.38888889  0.05555556  0.00000000       0.009
   0.44444444  0.05555556  0.00000000       0.009
   0.11111111  0.11111111  0.00000000       0.005
   0.16666667  0.11111111  0.00000000       0.009
   0.22222222  0.11111111  0.00000000       0.009
   0.27777778  0.11111111  0.00000000       0.009
   0.33333333  0.11111111  0.00000000       0.009
   0.38888889  0.11111111  0.00000000       0.009
   0.44444444  0.11111111  0.00000000       0.005
   0.16666667  0.16666667  0.00000000       0.005
   0.22222222  0.16666667  0.00000000       0.009
   0.27777778  0.16666667  0.00000000       0.009
   0.33333333  0.16666667  0.00000000       0.009
   0.38888889  0.16666667  0.00000000       0.009
   0.22222222  0.22222222  0.00000000       0.005
   0.27777778  0.22222222  0.00000000       0.009
   0.33333333  0.22222222  0.00000000       0.009
   0.38888889  0.22222222  0.00000000       0.005
   0.27777778  0.27777778  0.00000000       0.005
   0.33333333  0.27777778  0.00000000       0.009
   0.33333333  0.33333333  0.00000000       0.002
   0.00000000  0.00000000  0.25000000       0.002
   0.05555556  0.00000000  0.25000000       0.009
   0.11111111  0.00000000  0.25000000       0.009
   0.16666667  0.00000000  0.25000000       0.009
   0.22222222  0.00000000  0.25000000       0.009
   0.27777778  0.00000000  0.25000000       0.009
   0.33333333  0.00000000  0.25000000       0.009
   0.38888889  0.00000000  0.25000000       0.009
   0.44444444  0.00000000  0.25000000       0.009
   0.50000000  0.00000000  0.25000000       0.005
   0.05555556  0.05555556  0.25000000       0.009
   0.11111111  0.05555556  0.25000000       0.019
   0.16666667  0.05555556  0.25000000       0.019
   0.22222222  0.05555556  0.25000000       0.019
   0.27777778  0.05555556  0.25000000       0.019
   0.33333333  0.05555556  0.25000000       0.019
   0.38888889  0.05555556  0.25000000       0.019
   0.44444444  0.05555556  0.25000000       0.019
   0.11111111  0.11111111  0.25000000       0.009
   0.16666667  0.11111111  0.25000000       0.019
   0.22222222  0.11111111  0.25000000       0.019
   0.27777778  0.11111111  0.25000000       0.019
   0.33333333  0.11111111  0.25000000       0.019
   0.38888889  0.11111111  0.25000000       0.019
   0.44444444  0.11111111  0.25000000       0.009
   0.16666667  0.16666667  0.25000000       0.009
   0.22222222  0.16666667  0.25000000       0.019
   0.27777778  0.16666667  0.25000000       0.019
   0.33333333  0.16666667  0.25000000       0.019
   0.38888889  0.16666667  0.25000000       0.019
   0.22222222  0.22222222  0.25000000       0.009
   0.27777778  0.22222222  0.25000000       0.019
   0.33333333  0.22222222  0.25000000       0.019
   0.38888889  0.22222222  0.25000000       0.009
   0.27777778  0.27777778  0.25000000       0.009
   0.33333333  0.27777778  0.25000000       0.019
   0.33333333  0.33333333  0.25000000       0.003
   0.00000000  0.00000000  0.50000000       0.001
   0.05555556  0.00000000  0.50000000       0.005
   0.11111111  0.00000000  0.50000000       0.005
   0.16666667  0.00000000  0.50000000       0.005
   0.22222222  0.00000000  0.50000000       0.005
   0.27777778  0.00000000  0.50000000       0.005
   0.33333333  0.00000000  0.50000000       0.005
   0.38888889  0.00000000  0.50000000       0.005
   0.44444444  0.00000000  0.50000000       0.005
   0.50000000  0.00000000  0.50000000       0.002
   0.05555556  0.05555556  0.50000000       0.005
   0.11111111  0.05555556  0.50000000       0.009
   0.16666667  0.05555556  0.50000000       0.009
   0.22222222  0.05555556  0.50000000       0.009
   0.27777778  0.05555556  0.50000000       0.009
   0.33333333  0.05555556  0.50000000       0.009
   0.38888889  0.05555556  0.50000000       0.009
   0.44444444  0.05555556  0.50000000       0.009
   0.11111111  0.11111111  0.50000000       0.005
   0.16666667  0.11111111  0.50000000       0.009
   0.22222222  0.11111111  0.50000000       0.009
   0.27777778  0.11111111  0.50000000       0.009
   0.33333333  0.11111111  0.50000000       0.009
   0.38888889  0.11111111  0.50000000       0.009
   0.44444444  0.11111111  0.50000000       0.005
   0.16666667  0.16666667  0.50000000       0.005
   0.22222222  0.16666667  0.50000000       0.009
   0.27777778  0.16666667  0.50000000       0.009
   0.33333333  0.16666667  0.50000000       0.009
   0.38888889  0.16666667  0.50000000       0.009
   0.22222222  0.22222222  0.50000000       0.005
   0.27777778  0.22222222  0.50000000       0.009
   0.33333333  0.22222222  0.50000000       0.009
   0.38888889  0.22222222  0.50000000       0.005
   0.27777778  0.27777778  0.50000000       0.005
   0.33333333  0.27777778  0.50000000       0.009
   0.33333333  0.33333333  0.50000000       0.002
 
 position of ions in fractional coordinates (direct lattice) 
   0.00000000  0.00000000  0.25000000
   0.00000000  0.00000000  0.75000000
   0.33333300  0.66666700  0.25000000
   0.66666700  0.33333300  0.75000000
 
 position of ions in cartesian coordinates  (Angst):
   0.00000000  0.00000000  1.95076825
   0.00000000  0.00000000  5.85230475
  -0.00000157  1.42449205  1.95076825
   1.23364657  0.71224495  5.85230475
 


--------------------------------------------------------------------------------------------------------


 k-point  1 :   0.0000 0.0000 0.0000  plane waves:     739
 k-point  2 :   0.0556 0.0000 0.0000  plane waves:     733
 k-point  3 :   0.1111 0.0000 0.0000  plane waves:     729
 k-point  4 :   0.1667 0.0000 0.0000  plane waves:     727
 k-point  5 :   0.2222 0.0000 0.0000  plane waves:     747
 k-point  6 :   0.2778 0.0000 0.0000  plane waves:     745
 k-point  7 :   0.3333 0.0000 0.0000  plane waves:     749
 k-point  8 :   0.3889 0.0000 0.0000  plane waves:     737
 k-point  9 :   0.4444 0.0000 0.0000  plane waves:     739
 k-point 10 :   0.5000 0.0000 0.0000  plane waves:     734
 k-point 11 :   0.0556 0.0556 0.0000  plane waves:     720
 k-point 12 :   0.1111 0.0556 0.0000  plane waves:     729
 k-point 13 :   0.1667 0.0556 0.0000  plane waves:     739
 k-point 14 :   0.2222 0.0556 0.0000  plane waves:     746
 k-point 15 :   0.2778 0.0556 0.0000  plane waves:     754
 k-point 16 :   0.3333 0.0556 0.0000  plane waves:     751
 k-point 17 :   0.3889 0.0556 0.0000  plane waves:     751
 k-point 18 :   0.4444 0.0556 0.0000  plane waves:     743
 k-point 19 :   0.1111 0.1111 0.0000  plane waves:     738
 k-point 20 :   0.1667 0.1111 0.0000  plane waves:     744
 k-point 21 :   0.2222 0.1111 0.0000  plane waves:     748
 k-point 22 :   0.2778 0.1111 0.0000  plane waves:     751
 k-point 23 :   0.3333 0.1111 0.0000  plane waves:     757
 k-point 24 :   0.3889 0.1111 0.0000  plane waves:     753
 k-point 25 :   0.4444 0.1111 0.0000  plane waves:     752
 k-point 26 :   0.1667 0.1667 0.0000  plane waves:     740
 k-point 27 :   0.2222 0.1667 0.0000  plane waves:     756
 k-point 28 :   0.2778 0.1667 0.0000  plane waves:     757
 k-point 29 :   0.3333 0.1667 0.0000  plane waves:     759
 k-point 30 :   0.3889 0.1667 0.0000  plane waves:     755
 k-point 31 :   0.2222 0.2222 0.0000  plane waves:     756
 k-point 32 :   0.2778 0.2222 0.0000  plane waves:     758
 k-point 33 :   0.3333 0.2222 0.0000  plane waves:     753
 k-point 34 :   0.3889 0.2222 0.0000  plane waves:     752
 k-point 35 :   0.2778 0.2778 0.0000  plane waves:     756
 k-point 36 :   0.3333 0.2778 0.0000  plane waves:     750
 k-point 37 :   0.3333 0.3333 0.0000  plane waves:     750
 k-point 38 :   0.0000 0.0000 0.2500  plane waves:     727
 k-point 39 :   0.0556 0.0000 0.2500  plane waves:     719
 k-point 40 :   0.1111 0.0000 0.2500  plane waves:     722
 k-point 41 :   0.1667 0.0000 0.2500  plane waves:     732
 k-point 42 :   0.2222 0.0000 0.2500  plane waves:     741
 k-point 43 :   0.2778 0.0000 0.2500  plane waves:     748
 k-point 44 :   0.3333 0.0000 0.2500  plane waves:     748
 k-point 45 :   0.3889 0.0000 0.2500  plane waves:     752
 k-point 46 :   0.4444 0.0000 0.2500  plane waves:     745
 k-point 47 :   0.5000 0.0000 0.2500  plane waves:     744
 k-point 48 :   0.0556 0.0556 0.2500  plane waves:     720
 k-point 49 :   0.1111 0.0556 0.2500  plane waves:     728
 k-point 50 :   0.1667 0.0556 0.2500  plane waves:     736
 k-point 51 :   0.2222 0.0556 0.2500  plane waves:     743
 k-point 52 :   0.2778 0.0556 0.2500  plane waves:     749
 k-point 53 :   0.3333 0.0556 0.2500  plane waves:     749
 k-point 54 :   0.3889 0.0556 0.2500  plane waves:     754
 k-point 55 :   0.4444 0.0556 0.2500  plane waves:     755
 k-point 56 :   0.1111 0.1111 0.2500  plane waves:     740
 k-point 57 :   0.1667 0.1111 0.2500  plane waves:     745
 k-point 58 :   0.2222 0.1111 0.2500  plane waves:     750
 k-point 59 :   0.2778 0.1111 0.2500  plane waves:     753
 k-point 60 :   0.3333 0.1111 0.2500  plane waves:     754
 k-point 61 :   0.3889 0.1111 0.2500  plane waves:     754
 k-point 62 :   0.4444 0.1111 0.2500  plane waves:     753
 k-point 63 :   0.1667 0.1667 0.2500  plane waves:     753
 k-point 64 :   0.2222 0.1667 0.2500  plane waves:     752
 k-point 65 :   0.2778 0.1667 0.2500  plane waves:     755
 k-point 66 :   0.3333 0.1667 0.2500  plane waves:     755
 k-point 67 :   0.3889 0.1667 0.2500  plane waves:     753
 k-point 68 :   0.2222 0.2222 0.2500  plane waves:     748
 k-point 69 :   0.2778 0.2222 0.2500  plane waves:     754
 k-point 70 :   0.3333 0.2222 0.2500  plane waves:     755
 k-point 71 :   0.3889 0.2222 0.2500  plane waves:     750
 k-point 72 :   0.2778 0.2778 0.2500  plane waves:     756
 k-point 73 :   0.3333 0.2778 0.2500  plane waves:     749
 k-point 74 :   0.3333 0.3333 0.2500  plane waves:     744
 k-point 75 :   0.0000 0.0000 0.5000  plane waves:     698
 k-point 76 :   0.0556 0.0000 0.5000  plane waves:     710
 k-point 77 :   0.1111 0.0000 0.5000  plane waves:     722
 k-point 78 :   0.1667 0.0000 0.5000  plane waves:     732
 k-point 79 :   0.2222 0.0000 0.5000  plane waves:     738
 k-point 80 :   0.2778 0.0000 0.5000  plane waves:     736
 k-point 81 :   0.3333 0.0000 0.5000  plane waves:     742
 k-point 82 :   0.3889 0.0000 0.5000  plane waves:     750
 k-point 83 :   0.4444 0.0000 0.5000  plane waves:     750
 k-point 84 :   0.5000 0.0000 0.5000  plane waves:     748
 k-point 85 :   0.0556 0.0556 0.5000  plane waves:     716
 k-point 86 :   0.1111 0.0556 0.5000  plane waves:     730
 k-point 87 :   0.1667 0.0556 0.5000  plane waves:     734
 k-point 88 :   0.2222 0.0556 0.5000  plane waves:     740
 k-point 89 :   0.2778 0.0556 0.5000  plane waves:     744
 k-point 90 :   0.3333 0.0556 0.5000  plane waves:     754
 k-point 91 :   0.3889 0.0556 0.5000  plane waves:     756
 k-point 92 :   0.4444 0.0556 0.5000  plane waves:     760
 k-point 93 :   0.1111 0.1111 0.5000  plane waves:     730
 k-point 94 :   0.1667 0.1111 0.5000  plane waves:     744
 k-point 95 :   0.2222 0.1111 0.5000  plane waves:     750
 k-point 96 :   0.2778 0.1111 0.5000  plane waves:     756
 k-point 97 :   0.3333 0.1111 0.5000  plane waves:     756
 k-point 98 :   0.3889 0.1111 0.5000  plane waves:     758
 k-point 99 :   0.4444 0.1111 0.5000  plane waves:     754
 k-point ** :   0.1667 0.1667 0.5000  plane waves:     752
 k-point ** :   0.2222 0.1667 0.5000  plane waves:     754
 k-point ** :   0.2778 0.1667 0.5000  plane waves:     752
 k-point ** :   0.3333 0.1667 0.5000  plane waves:     760
 k-point ** :   0.3889 0.1667 0.5000  plane waves:     758
 k-point ** :   0.2222 0.2222 0.5000  plane waves:     754
 k-point ** :   0.2778 0.2222 0.5000  plane waves:     750
 k-point ** :   0.3333 0.2222 0.5000  plane waves:     758
 k-point ** :   0.3889 0.2222 0.5000  plane waves:     750
 k-point ** :   0.2778 0.2778 0.5000  plane waves:     748
 k-point ** :   0.3333 0.2778 0.5000  plane waves:     748
 k-point ** :   0.3333 0.3333 0.5000  plane waves:     744

 maximum and minimum number of plane-waves per node :       200      162

 maximum number of plane-waves:       760
 maximum index in each direction: 
   IXMAX=    4   IYMAX=    4   IZMAX=   12
   IXMIN=   -4   IYMIN=   -4   IZMIN=  -13


 parallel 3D FFT for wavefunctions:
    minimum data exchange during FFTs selected (reduces bandwidth)
 parallel 3D FFT for charge:
    minimum data exchange during FFTs selected (reduces bandwidth)


 total amount of memory used by VASP MPI-rank0    35339. kBytes
=======================================================================

   base      :      30000. kBytes
   nonl-proj :       1376. kBytes
   fftplans  :        333. kBytes
   grid      :        783. kBytes
   one-center:          6. kBytes
   wavefun   :       2841. kBytes
 
     INWAV:  cpu time    0.0001: real time    0.0002
 Broyden mixing: mesh for mixing (old mesh)
   NGX =  9   NGY =  9   NGZ = 25
  (NGX  = 32   NGY  = 32   NGZ  =108)
  gives a total of   2025 points

 charge density for first step will be calculated from the start-wavefunctions


--------------------------------------------------------------------------------------------------------


 Maximum index for augmentation-charges           281 (set IRDMAX)


--------------------------------------------------------------------------------------------------------


 initial charge from wavefunction
 First call to EWALD:  gamma=   0.513
 Maximum number of real-space cells 4x 4x 1
 Maximum number of reciprocal cells 2x 2x 6

    FEWALD:  cpu time    0.0005: real time    0.0005


--------------------------------------- Iteration      1(   1)  ---------------------------------------


    POTLOK:  cpu time    0.0142: real time    0.0169
    SETDIJ:  cpu time    0.0033: real time    0.0033
     EDDAV:  cpu time    1.1070: real time    1.1093
 BZINTS: Fermi energy:-23.008278; 16.000000 electrons
         Band energy:-602.553935;  BLOECHL correction: -0.139307
       DOS:  cpu time    0.0988: real time    0.0988
    --------------------------------------------
      LOOP:  cpu time    1.2234: real time    1.2283

 eigenvalue-minimisations  : 10632
 total energy-change (2. order) :-0.3098092E+03  (-0.1206711E+04)
 number of electron      16.0000000 magnetization       0.0000000
 augmentation part       -0.0628274 magnetization      -0.0025461

 Free energy of the ion-electron system (eV)
  ---------------------------------------------------
  alpha Z        PSCENC =        31.69091381
  Ewald energy   TEWEN  =      -360.71913134
  -Hartree energ DENC   =       -11.24567701
  -exchange      EXHF   =         0.00000000
  -V(xc)+E(xc)   XCENC  =        45.98753402
  PAW double counting   =        11.88648395      -13.36428932
  entropy T*S    EENTRO =         0.00000000
  eigenvalues    EBANDS =      -602.55393538
  atomic energy  EATOM  =       588.50889549
  Solvation  Ediel_sol  =         0.00000000
  ---------------------------------------------------
  free energy    TOTEN  =      -309.80920578 eV

  energy without entropy =     -309.80920578  energy(sigma->0) =     -309.80920578


--------------------------------------------------------------------------------------------------------




--------------------------------------- Iteration      1(   2)  ---------------------------------------


     EDDAV:  cpu time    1.0727: real time    1.0741
 BZINTS: Fermi energy:-26.931459; 16.000000 electrons
         Band energy:-666.160066;  BLOECHL correction: -0.001230
       DOS:  cpu time    0.0923: real time    0.0923
    --------------------------------------------
      LOOP:  cpu time    1.1650: real time    1.1664

 eigenvalue-minimisations  : 10248
 total energy-change (2. order) :-0.6360613E+02  (-0.5799443E+02)
 number of electron      16.0000000 magnetization       0.0000000
 augmentation part       -0.0628274 magnetization      -0.0025461

 Free energy of the ion-electron system (eV)
  ---------------------------------------------------
  alpha Z        PSCENC =        31.69091381
  Ewald energy   TEWEN  =      -360.71913134
  -Hartree energ DENC   =       -11.24567701
  -exchange      EXHF   =         0.00000000
  -V(xc)+E(xc)   XCENC  =        45.98753402
  PAW double counting   =        11.88648395      -13.36428932
  entropy T*S    EENTRO =         0.00000000
  eigenvalues    EBANDS =      -666.16006607
  atomic energy  EATOM  =       588.50889549
  Solvation  Ediel_sol  =         0.00000000
  ---------------------------------------------------
  free energy    TOTEN  =      -373.41533648 eV

  energy without entropy =     -373.41533648  energy(sigma->0) =     -373.41533648


--------------------------------------------------------------------------------------------------------




--------------------------------------- Iteration      1(   3)  ---------------------------------------


     EDDAV:  cpu time    0.9439: real time    0.9465
 BZINTS: Fermi energy:-27.040849; 16.000000 electrons
         Band energy:-668.998158;  BLOECHL correction: -0.000009
       DOS:  cpu time    0.0636: real time    0.0636
    --------------------------------------------
      LOOP:  cpu time    1.0075: real time    1.0101

 eigenvalue-minimisations  :  9000
 total energy-change (2. order) :-0.2838092E+01  (-0.2813102E+01)
 number of electron      16.0000000 magnetization       0.0000000
 augmentation part       -0.0628274 magnetization      -0.0025461

 Free energy of the ion-electron system (eV)
  ---------------------------------------------------
  alpha Z        PSCENC =        31.69091381
  Ewald energy   TEWEN  =      -360.71913134
  -Hartree energ DENC   =       -11.24567701
  -exchange      EXHF   =         0.00000000
  -V(xc)+E(xc)   XCENC  =        45.98753402
  PAW double counting   =        11.88648395      -13.36428932
  entropy T*S    EENTRO =         0.00000000
  eigenvalues    EBANDS =      -668.99815800
  atomic energy  EATOM  =       588.50889549
  Solvation  Ediel_sol  =         0.00000000
  ---------------------------------------------------
  free energy    TOTEN  =      -376.25342841 eV

  energy without entropy =     -376.25342841  energy(sigma->0) =     -376.25342841


--------------------------------------------------------------------------------------------------------




--------------------------------------- Iteration      1(   4)  ---------------------------------------


     EDDAV:  cpu time    1.0514: real time    1.0521
 BZINTS: Fermi energy:-27.046837; 16.000000 electrons
         Band energy:-669.105238;  BLOECHL correction: -0.000000
       DOS:  cpu time    0.0569: real time    0.0569
    --------------------------------------------
      LOOP:  cpu time    1.1083: real time    1.1090

 eigenvalue-minimisations  : 10296
 total energy-change (2. order) :-0.1070800E+00  (-0.1070549E+00)
 number of electron      16.0000000 magnetization       0.0000000
 augmentation part       -0.0628274 magnetization      -0.0025461

 Free energy of the ion-electron system (eV)
  ---------------------------------------------------
  alpha Z        PSCENC =        31.69091381
  Ewald energy   TEWEN  =      -360.71913134
  -Hartree energ DENC   =       -11.24567701
  -exchange      EXHF   =         0.00000000
  -V(xc)+E(xc)   XCENC  =        45.98753402
  PAW double counting   =        11.88648395      -13.36428932
  entropy T*S    EENTRO =         0.00000000
  eigenvalues    EBANDS =      -669.10523800
  atomic energy  EATOM  =       588.50889549
  Solvation  Ediel_sol  =         0.00000000
  ---------------------------------------------------
  free energy    TOTEN  =      -376.36050841 eV

  energy without entropy =     -376.36050841  energy(sigma->0) =     -376.36050841


--------------------------------------------------------------------------------------------------------




--------------------------------------- Iteration      1(   5)  ---------------------------------------


     EDDAV:  cpu time    0.9532: real time    0.9548
 BZINTS: Fermi energy:-27.047130; 16.000000 electrons
         Band energy:-669.106773;  BLOECHL correction: -0.000000
       DOS:  cpu time    0.0370: real time    0.0370
    CHARGE:  cpu time    0.0264: real time    0.0264
    MIXING:  cpu time    0.0004: real time    0.0004
    --------------------------------------------
      LOOP:  cpu time    1.0170: real time    1.0186

 eigenvalue-minimisations  :  9184
 total energy-change (2. order) :-0.1534850E-02  (-0.1534999E-02)
 number of electron      15.9999995 magnetization       0.0000000
 augmentation part        0.7152080 magnetization       0.0004618

 Broyden mixing:
  rms(total) = 0.49633E+01    rms(broyden)= 0.49602E+01
  rms(prec ) = 0.94050E+01
  weight for this iteration     100.00

 Free energy of the ion-electron system (eV)
  ---------------------------------------------------
  alpha Z        PSCENC =        31.69091381
  Ewald energy   TEWEN  =      -360.71913134
  -Hartree energ DENC   =       -11.24567701
  -exchange      EXHF   =         0.00000000
  -V(xc)+E(xc)   XCENC  =        45.98753402
  PAW double counting   =        11.88648395      -13.36428932
  entropy T*S    EENTRO =         0.00000000
  eigenvalues    EBANDS =      -669.10677285
  atomic energy  EATOM  =       588.50889549
  Solvation  Ediel_sol  =         0.00000000
  ---------------------------------------------------
  free energy    TOTEN  =      -376.36204326 eV

  energy without entropy =     -376.36204326  energy(sigma->0) =     -376.36204326


--------------------------------------------------------------------------------------------------------




--------------------------------------- Iteration      1(   6)  ---------------------------------------


    POTLOK:  cpu time    0.0086: real time    0.0101
    SETDIJ:  cpu time    0.0030: real time    0.0030
     EDDAV:  cpu time    0.7803: real time    0.7803
 BZINTS: Fermi energy:-14.405030; 16.000000 electrons
         Band energy:-448.007044;  BLOECHL correction:  0.000000
       DOS:  cpu time    0.0194: real time    0.0194
    CHARGE:  cpu time    0.0262: real time    0.0262
    MIXING:  cpu time    0.0003: real time    0.0003
    --------------------------------------------
      LOOP:  cpu time    0.8377: real time    0.8392

 eigenvalue-minimisations  :  7104
 total energy-change (2. order) : 0.1984652E+03  (-0.4864896E+01)
 number of electron      15.9999997 magnetization      -0.0000000
 augmentation part        0.6022379 magnetization       0.0000355

 Broyden mixing:
  rms(total) = 0.29582E+01    rms(broyden)= 0.29580E+01
  rms(prec ) = 0.60071E+01
  weight for this iteration     100.00

 eigenvalues of (default mixing * dielectric matrix)
  average eigenvalue GAMMA=   2.1822
  2.1822

 Free energy of the ion-electron system (eV)
  ---------------------------------------------------
  alpha Z        PSCENC =        31.69091381
  Ewald energy   TEWEN  =      -360.71913134
  -Hartree energ DENC   =       -32.39763044
  -exchange      EXHF   =         0.00000000
  -V(xc)+E(xc)   XCENC  =        47.60153032
  PAW double counting   =       106.18572062     -110.76014341
  entropy T*S    EENTRO =         0.00000000
  eigenvalues    EBANDS =      -448.00704389
  atomic energy  EATOM  =       588.50889549
  Solvation  Ediel_sol  =         0.00000000
  ---------------------------------------------------
  free energy    TOTEN  =      -177.89688884 eV

  energy without entropy =     -177.89688884  energy(sigma->0) =     -177.89688884


--------------------------------------------------------------------------------------------------------




--------------------------------------- Iteration      1(   7)  ---------------------------------------


    POTLOK:  cpu time    0.0095: real time    0.0103
    SETDIJ:  cpu time    0.0031: real time    0.0031
     EDDAV:  cpu time    0.9658: real time    0.9659
 BZINTS: Fermi energy:  3.185323; 16.000000 electrons
         Band energy: -96.424178;  BLOECHL correction:  0.000000
       DOS:  cpu time    0.0199: real time    0.0199
    CHARGE:  cpu time    0.0261: real time    0.0261
    MIXING:  cpu time    0.0003: real time    0.0003
    --------------------------------------------
      LOOP:  cpu time    1.0246: real time    1.0255

 eigenvalue-minimisations  :  9152
 total energy-change (2. order) : 0.1398390E+03  (-0.2098835E+02)
 number of electron      16.0000000 magnetization      -0.0000000
 augmentation part        0.3930663 magnetization       0.0001534

 Broyden mixing:
  rms(total) = 0.10446E+01    rms(broyden)= 0.10413E+01
  rms(prec ) = 0.14682E+01
  weight for this iteration     100.00

 eigenvalues of (default mixing * dielectric matrix)
  average eigenvalue GAMMA=   1.6160
  1.5279  1.7040

 Free energy of the ion-electron system (eV)
  ---------------------------------------------------
  alpha Z        PSCENC =        31.69091381
  Ewald energy   TEWEN  =      -360.71913134
  -Hartree energ DENC   =      -253.07318339
  -exchange      EXHF   =         0.00000000
  -V(xc)+E(xc)   XCENC  =        58.95900867
  PAW double counting   =       399.80811756     -406.80837958
  entropy T*S    EENTRO =         0.00000000
  eigenvalues    EBANDS =       -96.42417765
  atomic energy  EATOM  =       588.50889549
  Solvation  Ediel_sol  =         0.00000000
  ---------------------------------------------------
  free energy    TOTEN  =       -38.05793642 eV

  energy without entropy =      -38.05793642  energy(sigma->0) =      -38.05793642


--------------------------------------------------------------------------------------------------------




--------------------------------------- Iteration      1(   8)  ---------------------------------------


    POTLOK:  cpu time    0.0097: real time    0.0102
    SETDIJ:  cpu time    0.0031: real time    0.0031
     EDDAV:  cpu time    0.9619: real time    0.9620
 BZINTS: Fermi energy:  2.156794; 16.000000 electrons
         Band energy:-120.357691;  BLOECHL correction: -0.000021
       DOS:  cpu time    0.0746: real time    0.0746
    CHARGE:  cpu time    0.0267: real time    0.0267
    MIXING:  cpu time    0.0003: real time    0.0003
    --------------------------------------------
      LOOP:  cpu time    1.0763: real time    1.0769

 eigenvalue-minimisations  :  9200
 total energy-change (2. order) : 0.4786641E-01  (-0.7150659E+00)
 number of electron      15.9999999 magnetization       0.0000008
 augmentation part        0.3939170 magnetization       0.0001335

 Broyden mixing:
  rms(total) = 0.42606E+00    rms(broyden)= 0.42600E+00
  rms(prec ) = 0.80385E+00
  weight for this iteration     100.00

 eigenvalues of (default mixing * dielectric matrix)
  average eigenvalue GAMMA=   1.9876
  0.8853  2.5388  2.5388

 Free energy of the ion-electron system (eV)
  ---------------------------------------------------
  alpha Z        PSCENC =        31.69091381
  Ewald energy   TEWEN  =      -360.71913134
  -Hartree energ DENC   =      -227.92909980
  -exchange      EXHF   =         0.00000000
  -V(xc)+E(xc)   XCENC  =        56.62262345
  PAW double counting   =       310.82867490     -316.65525538
  entropy T*S    EENTRO =         0.00000000
  eigenvalues    EBANDS =      -120.35769115
  atomic energy  EATOM  =       588.50889549
  Solvation  Ediel_sol  =         0.00000000
  ---------------------------------------------------
  free energy    TOTEN  =       -38.01007002 eV

  energy without entropy =      -38.01007002  energy(sigma->0) =      -38.01007002


--------------------------------------------------------------------------------------------------------




--------------------------------------- Iteration      1(   9)  ---------------------------------------


    POTLOK:  cpu time    0.0094: real time    0.0100
    SETDIJ:  cpu time    0.0031: real time    0.0031
     EDDAV:  cpu time    0.9596: real time    0.9597
 BZINTS: Fermi energy:  3.448511; 16.000000 electrons
         Band energy: -92.213177;  BLOECHL correction: -0.000029
       DOS:  cpu time    0.0776: real time    0.0776
    CHARGE:  cpu time    0.0264: real time    0.0264
    MIXING:  cpu time    0.0003: real time    0.0003
    --------------------------------------------
      LOOP:  cpu time    1.0764: real time    1.0771

 eigenvalue-minimisations  :  9160
 total energy-change (2. order) : 0.1171613E+01  (-0.1984789E+00)
 number of electron      16.0000000 magnetization      -0.0000006
 augmentation part        0.3862712 magnetization       0.0000132

 Broyden mixing:
  rms(total) = 0.10851E+00    rms(broyden)= 0.10833E+00
  rms(prec ) = 0.14842E+00
  weight for this iteration     100.00

 eigenvalues of (default mixing * dielectric matrix)
  average eigenvalue GAMMA=   1.6681
  2.5330  2.5330  0.8032  0.8032

 Free energy of the ion-electron system (eV)
  ---------------------------------------------------
  alpha Z        PSCENC =        31.69091381
  Ewald energy   TEWEN  =      -360.71913134
  -Hartree energ DENC   =      -256.57511368
  -exchange      EXHF   =         0.00000000
  -V(xc)+E(xc)   XCENC  =        57.45231852
  PAW double counting   =       278.29607976     -283.27924233
  entropy T*S    EENTRO =         0.00000000
  eigenvalues    EBANDS =       -92.21317725
  atomic energy  EATOM  =       588.50889549
  Solvation  Ediel_sol  =         0.00000000
  ---------------------------------------------------
  free energy    TOTEN  =       -36.83845703 eV

  energy without entropy =      -36.83845703  energy(sigma->0) =      -36.83845703


--------------------------------------------------------------------------------------------------------




--------------------------------------- Iteration      1(  10)  ---------------------------------------


    POTLOK:  cpu time    0.0095: real time    0.0101
    SETDIJ:  cpu time    0.0031: real time    0.0031
     EDDAV:  cpu time    0.8207: real time    0.8208
 BZINTS: Fermi energy:  3.359639; 16.000000 electrons
         Band energy: -92.646628;  BLOECHL correction: -0.000015
       DOS:  cpu time    0.0687: real time    0.0687
    CHARGE:  cpu time    0.0266: real time    0.0266
    MIXING:  cpu time    0.0003: real time    0.0003
    --------------------------------------------
      LOOP:  cpu time    0.9288: real time    0.9295

 eigenvalue-minimisations  :  7672
 total energy-change (2. order) :-0.2457421E-01  (-0.1511962E-01)
 number of electron      16.0000000 magnetization       0.0000001
 augmentation part        0.3818788 magnetization       0.0001320

 Broyden mixing:
  rms(total) = 0.44504E-01    rms(broyden)= 0.44471E-01
  rms(prec ) = 0.63414E-01
  weight for this iteration     100.00

 eigenvalues of (default mixing * dielectric matrix)
  average eigenvalue GAMMA=   1.7228
  2.7906  2.1164  2.1164  0.8763  0.7146

 Free energy of the ion-electron system (eV)
  ---------------------------------------------------
  alpha Z        PSCENC =        31.69091381
  Ewald energy   TEWEN  =      -360.71913134
  -Hartree energ DENC   =      -256.05825102
  -exchange      EXHF   =         0.00000000
  -V(xc)+E(xc)   XCENC  =        57.43302030
  PAW double counting   =       279.46535597     -284.53720636
  entropy T*S    EENTRO =         0.00000000
  eigenvalues    EBANDS =       -92.64662808
  atomic energy  EATOM  =       588.50889549
  Solvation  Ediel_sol  =         0.00000000
  ---------------------------------------------------
  free energy    TOTEN  =       -36.86303123 eV

  energy without entropy =      -36.86303123  energy(sigma->0) =      -36.86303123


--------------------------------------------------------------------------------------------------------




--------------------------------------- Iteration      1(  11)  ---------------------------------------


    POTLOK:  cpu time    0.0095: real time    0.0103
    SETDIJ:  cpu time    0.0030: real time    0.0030
     EDDAV:  cpu time    0.7948: real time    0.7949
 BZINTS: Fermi energy:  3.451969; 16.000000 electrons
         Band energy: -90.083763;  BLOECHL correction: -0.000014
       DOS:  cpu time    0.0688: real time    0.0688
    CHARGE:  cpu time    0.0267: real time    0.0267
    MIXING:  cpu time    0.0003: real time    0.0003
    --------------------------------------------
      LOOP:  cpu time    0.9032: real time    0.9041

 eigenvalue-minimisations  :  7360
 total energy-change (2. order) :-0.2459164E-01  (-0.7924810E-02)
 number of electron      16.0000000 magnetization      -0.0000000
 augmentation part        0.3798033 magnetization      -0.0000134

 Broyden mixing:
  rms(total) = 0.34445E-01    rms(broyden)= 0.34417E-01
  rms(prec ) = 0.49983E-01
  weight for this iteration     100.00

 eigenvalues of (default mixing * dielectric matrix)
  average eigenvalue GAMMA=   1.6593
  3.0566  2.2023  2.2023  0.9145  0.9145  0.6657

 Free energy of the ion-electron system (eV)
  ---------------------------------------------------
  alpha Z        PSCENC =        31.69091381
  Ewald energy   TEWEN  =      -360.71913134
  -Hartree energ DENC   =      -258.72968960
  -exchange      EXHF   =         0.00000000
  -V(xc)+E(xc)   XCENC  =        57.58674687
  PAW double counting   =       280.69190885     -285.83350360
  entropy T*S    EENTRO =         0.00000000
  eigenvalues    EBANDS =       -90.08376336
  atomic energy  EATOM  =       588.50889549
  Solvation  Ediel_sol  =         0.00000000
  ---------------------------------------------------
  free energy    TOTEN  =       -36.88762288 eV

  energy without entropy =      -36.88762288  energy(sigma->0) =      -36.88762288


--------------------------------------------------------------------------------------------------------




--------------------------------------- Iteration      1(  12)  ---------------------------------------


    POTLOK:  cpu time    0.0092: real time    0.0099
    SETDIJ:  cpu time    0.0029: real time    0.0029
     EDDAV:  cpu time    0.7976: real time    0.7977
 BZINTS: Fermi energy:  3.484084; 16.000000 electrons
         Band energy: -89.945903;  BLOECHL correction: -0.000013
       DOS:  cpu time    0.0697: real time    0.0697
    CHARGE:  cpu time    0.0267: real time    0.0267
    MIXING:  cpu time    0.0004: real time    0.0004
    --------------------------------------------
      LOOP:  cpu time    0.9064: real time    0.9071

 eigenvalue-minimisations  :  7368
 total energy-change (2. order) :-0.2361734E-01  (-0.1187872E-02)
 number of electron      16.0000000 magnetization       0.0000001
 augmentation part        0.3796292 magnetization       0.0000378

 Broyden mixing:
  rms(total) = 0.15839E-01    rms(broyden)= 0.15837E-01
  rms(prec ) = 0.26185E-01
  weight for this iteration     100.00

 eigenvalues of (default mixing * dielectric matrix)
  average eigenvalue GAMMA=   1.6031
  3.0563  2.3673  2.3673  1.0033  1.0033  0.7678  0.6563

 Free energy of the ion-electron system (eV)
  ---------------------------------------------------
  alpha Z        PSCENC =        31.69091381
  Ewald energy   TEWEN  =      -360.71913134
  -Hartree energ DENC   =      -258.89088142
  -exchange      EXHF   =         0.00000000
  -V(xc)+E(xc)   XCENC  =        57.58685367
  PAW double counting   =       279.93739383     -285.07938175
  entropy T*S    EENTRO =         0.00000000
  eigenvalues    EBANDS =       -89.94590250
  atomic energy  EATOM  =       588.50889549
  Solvation  Ediel_sol  =         0.00000000
  ---------------------------------------------------
  free energy    TOTEN  =       -36.91124021 eV

  energy without entropy =      -36.91124021  energy(sigma->0) =      -36.91124021


--------------------------------------------------------------------------------------------------------




--------------------------------------- Iteration      1(  13)  ---------------------------------------


    POTLOK:  cpu time    0.0088: real time    0.0104
    SETDIJ:  cpu time    0.0030: real time    0.0030
     EDDAV:  cpu time    0.8592: real time    0.8593
 BZINTS: Fermi energy:  3.450084; 16.000000 electrons
         Band energy: -90.861322;  BLOECHL correction: -0.000006
       DOS:  cpu time    0.0660: real time    0.0660
    CHARGE:  cpu time    0.0270: real time    0.0270
    MIXING:  cpu time    0.0004: real time    0.0004
    --------------------------------------------
      LOOP:  cpu time    0.9645: real time    0.9662

 eigenvalue-minimisations  :  8080
 total energy-change (2. order) :-0.1604478E-03  (-0.3240515E-03)
 number of electron      16.0000000 magnetization       0.0000001
 augmentation part        0.3802951 magnetization      -0.0000014

 Broyden mixing:
  rms(total) = 0.43011E-02    rms(broyden)= 0.42799E-02
  rms(prec ) = 0.62394E-02
  weight for this iteration     100.00

 eigenvalues of (default mixing * dielectric matrix)
  average eigenvalue GAMMA=   1.5272
  2.9819  2.7423  2.2280  0.9753  0.9753  0.9262  0.7467  0.6416

 Free energy of the ion-electron system (eV)
  ---------------------------------------------------
  alpha Z        PSCENC =        31.69091381
  Ewald energy   TEWEN  =      -360.71913134
  -Hartree energ DENC   =      -257.92524726
  -exchange      EXHF   =         0.00000000
  -V(xc)+E(xc)   XCENC  =        57.53562529
  PAW double counting   =       278.73396650     -283.87510116
  entropy T*S    EENTRO =         0.00000000
  eigenvalues    EBANDS =       -90.86132199
  atomic energy  EATOM  =       588.50889549
  Solvation  Ediel_sol  =         0.00000000
  ---------------------------------------------------
  free energy    TOTEN  =       -36.91140066 eV

  energy without entropy =      -36.91140066  energy(sigma->0) =      -36.91140066


--------------------------------------------------------------------------------------------------------




--------------------------------------- Iteration      1(  14)  ---------------------------------------


    POTLOK:  cpu time    0.0091: real time    0.0100
    SETDIJ:  cpu time    0.0031: real time    0.0031
     EDDAV:  cpu time    0.8695: real time    0.8696
 BZINTS: Fermi energy:  3.440602; 16.000000 electrons
         Band energy: -91.016094;  BLOECHL correction: -0.000011
       DOS:  cpu time    0.0645: real time    0.0645
    CHARGE:  cpu time    0.0270: real time    0.0270
    MIXING:  cpu time    0.0004: real time    0.0004
    --------------------------------------------
      LOOP:  cpu time    0.9736: real time    0.9746

 eigenvalue-minimisations  :  8168
 total energy-change (2. order) :-0.2138141E-03  (-0.3880457E-04)
 number of electron      16.0000000 magnetization       0.0000001
 augmentation part        0.3805423 magnetization      -0.0000018

 Broyden mixing:
  rms(total) = 0.24008E-02    rms(broyden)= 0.23946E-02
  rms(prec ) = 0.31099E-02
  weight for this iteration     100.00

 eigenvalues of (default mixing * dielectric matrix)
  average eigenvalue GAMMA=   1.4044
  3.0004  2.7275  2.2303  0.9932  0.9932  0.9461  0.7524  0.6483  0.3483

 Free energy of the ion-electron system (eV)
  ---------------------------------------------------
  alpha Z        PSCENC =        31.69091381
  Ewald energy   TEWEN  =      -360.71913134
  -Hartree energ DENC   =      -257.76424992
  -exchange      EXHF   =         0.00000000
  -V(xc)+E(xc)   XCENC  =        57.52668898
  PAW double counting   =       278.47035214     -283.60898994
  entropy T*S    EENTRO =         0.00000000
  eigenvalues    EBANDS =       -91.01609369
  atomic energy  EATOM  =       588.50889549
  Solvation  Ediel_sol  =         0.00000000
  ---------------------------------------------------
  free energy    TOTEN  =       -36.91161448 eV

  energy without entropy =      -36.91161448  energy(sigma->0) =      -36.91161448


--------------------------------------------------------------------------------------------------------




--------------------------------------- Iteration      1(  15)  ---------------------------------------


    POTLOK:  cpu time    0.0095: real time    0.0105
    SETDIJ:  cpu time    0.0030: real time    0.0030
     EDDAV:  cpu time    0.8606: real time    0.8607
 BZINTS: Fermi energy:  3.442499; 16.000000 electrons
         Band energy: -90.965877;  BLOECHL correction: -0.000013
       DOS:  cpu time    0.0604: real time    0.0604
    CHARGE:  cpu time    0.0268: real time    0.0268
    MIXING:  cpu time    0.0005: real time    0.0005
    --------------------------------------------
      LOOP:  cpu time    0.9607: real time    0.9617

 eigenvalue-minimisations  :  8104
 total energy-change (2. order) :-0.3441185E-04  (-0.2585929E-05)
 number of electron      16.0000000 magnetization       0.0000004
 augmentation part        0.3805391 magnetization       0.0000010

 Broyden mixing:
  rms(total) = 0.16408E-02    rms(broyden)= 0.16391E-02
  rms(prec ) = 0.20893E-02
  weight for this iteration     100.00

 eigenvalues of (default mixing * dielectric matrix)
  average eigenvalue GAMMA=   1.5066
  3.0707  2.4842  2.4842  1.7154  1.1999  0.9545  0.9545  0.8372  0.6429  0.7227

 Free energy of the ion-electron system (eV)
  ---------------------------------------------------
  alpha Z        PSCENC =        31.69091381
  Ewald energy   TEWEN  =      -360.71913134
  -Hartree energ DENC   =      -257.81782732
  -exchange      EXHF   =         0.00000000
  -V(xc)+E(xc)   XCENC  =        57.52940111
  PAW double counting   =       278.53256355     -283.67058708
  entropy T*S    EENTRO =         0.00000000
  eigenvalues    EBANDS =       -90.96587710
  atomic energy  EATOM  =       588.50889549
  Solvation  Ediel_sol  =         0.00000000
  ---------------------------------------------------
  free energy    TOTEN  =       -36.91164889 eV

  energy without entropy =      -36.91164889  energy(sigma->0) =      -36.91164889


--------------------------------------------------------------------------------------------------------




--------------------------------------- Iteration      1(  16)  ---------------------------------------


    POTLOK:  cpu time    0.0095: real time    0.0101
    SETDIJ:  cpu time    0.0030: real time    0.0030
     EDDAV:  cpu time    0.8081: real time    0.8082
 BZINTS: Fermi energy:  3.444832; 16.000000 electrons
         Band energy: -90.931170;  BLOECHL correction: -0.000026
       DOS:  cpu time    0.0766: real time    0.0766
    CHARGE:  cpu time    0.0273: real time    0.0273
    MIXING:  cpu time    0.0005: real time    0.0005
    --------------------------------------------
      LOOP:  cpu time    0.9250: real time    0.9257

 eigenvalue-minimisations  :  7464
 total energy-change (2. order) :-0.3238050E-04  (-0.3178022E-05)
 number of electron      16.0000000 magnetization       0.0000008
 augmentation part        0.3805069 magnetization       0.0000008

 Broyden mixing:
  rms(total) = 0.36140E-03    rms(broyden)= 0.35156E-03
  rms(prec ) = 0.50735E-03
  weight for this iteration     100.00

 eigenvalues of (default mixing * dielectric matrix)
  average eigenvalue GAMMA=   1.4758
  3.0647  2.5494  2.5494  2.0964  1.1087  0.9484  0.9484  0.8275  0.8275  0.6808
  0.6321

 Free energy of the ion-electron system (eV)
  ---------------------------------------------------
  alpha Z        PSCENC =        31.69091381
  Ewald energy   TEWEN  =      -360.71913134
  -Hartree energ DENC   =      -257.85454905
  -exchange      EXHF   =         0.00000000
  -V(xc)+E(xc)   XCENC  =        57.53138184
  PAW double counting   =       278.63957766     -283.77760014
  entropy T*S    EENTRO =         0.00000000
  eigenvalues    EBANDS =       -90.93116954
  atomic energy  EATOM  =       588.50889549
  Solvation  Ediel_sol  =         0.00000000
  ---------------------------------------------------
  free energy    TOTEN  =       -36.91168127 eV

  energy without entropy =      -36.91168127  energy(sigma->0) =      -36.91168127


--------------------------------------------------------------------------------------------------------




--------------------------------------- Iteration      1(  17)  ---------------------------------------


    POTLOK:  cpu time    0.0088: real time    0.0105
    SETDIJ:  cpu time    0.0031: real time    0.0031
     EDDAV:  cpu time    0.8859: real time    0.8860
 BZINTS: Fermi energy:  3.444266; 16.000000 electrons
         Band energy: -90.944882;  BLOECHL correction: -0.000026
       DOS:  cpu time    0.0666: real time    0.0666
    CHARGE:  cpu time    0.0267: real time    0.0267
    MIXING:  cpu time    0.0006: real time    0.0006
    --------------------------------------------
      LOOP:  cpu time    0.9916: real time    0.9934

 eigenvalue-minimisations  :  8352
 total energy-change (2. order) :-0.2740762E-05  (-0.5286083E-06)
 number of electron      16.0000000 magnetization       0.0000011
 augmentation part        0.3805127 magnetization       0.0000001

 Broyden mixing:
  rms(total) = 0.16537E-03    rms(broyden)= 0.16238E-03
  rms(prec ) = 0.20382E-03
  weight for this iteration     100.00

 eigenvalues of (default mixing * dielectric matrix)
  average eigenvalue GAMMA=   1.4278
  3.0637  2.5475  2.5475  2.1336  1.1392  1.0073  1.0073  0.7966  0.7966  0.6440
  0.7249  0.7249

 Free energy of the ion-electron system (eV)
  ---------------------------------------------------
  alpha Z        PSCENC =        31.69091381
  Ewald energy   TEWEN  =      -360.71913134
  -Hartree energ DENC   =      -257.84029059
  -exchange      EXHF   =         0.00000000
  -V(xc)+E(xc)   XCENC  =        57.53056467
  PAW double counting   =       278.62155591     -283.75931025
  entropy T*S    EENTRO =         0.00000000
  eigenvalues    EBANDS =       -90.94488172
  atomic energy  EATOM  =       588.50889549
  Solvation  Ediel_sol  =         0.00000000
  ---------------------------------------------------
  free energy    TOTEN  =       -36.91168401 eV

  energy without entropy =      -36.91168401  energy(sigma->0) =      -36.91168401


--------------------------------------------------------------------------------------------------------




--------------------------------------- Iteration      1(  18)  ---------------------------------------


    POTLOK:  cpu time    0.0093: real time    0.0099
    SETDIJ:  cpu time    0.0030: real time    0.0030
     EDDAV:  cpu time    0.7213: real time    0.7213
 BZINTS: Fermi energy:  3.444111; 16.000000 electrons
         Band energy: -90.949024;  BLOECHL correction: -0.000026
       DOS:  cpu time    0.0753: real time    0.0753
    --------------------------------------------
      LOOP:  cpu time    0.8089: real time    0.8095

 eigenvalue-minimisations  :  6104
 total energy-change (2. order) :-0.1980185E-06  (-0.3216164E-07)
 number of electron      16.0000000 magnetization       0.0000011
 augmentation part        0.3805127 magnetization       0.0000001

 Free energy of the ion-electron system (eV)
  ---------------------------------------------------
  alpha Z        PSCENC =        31.69091381
  Ewald energy   TEWEN  =      -360.71913134
  -Hartree energ DENC   =      -257.83601262
  -exchange      EXHF   =         0.00000000
  -V(xc)+E(xc)   XCENC  =        57.53031073
  PAW double counting   =       278.61425622     -283.75189219
  entropy T*S    EENTRO =         0.00000000
  eigenvalues    EBANDS =       -90.94902429
  atomic energy  EATOM  =       588.50889549
  Solvation  Ediel_sol  =         0.00000000
  ---------------------------------------------------
  free energy    TOTEN  =       -36.91168421 eV

  energy without entropy =      -36.91168421  energy(sigma->0) =      -36.91168421


--------------------------------------------------------------------------------------------------------




 average (electrostatic) potential at core
  the test charge radii are     0.6991
  (the norm of the test charge is              1.0000)
       1 -52.0041       2 -52.0041       3 -51.9982       4 -51.9982
 
 
 
 E-fermi :   3.4441     XC(G=0):  -9.2743     alpha+bet : -9.7614


 spin component 1

 k-point     1 :       0.0000    0.0000    0.0000
  band No.  band energies     occupation 
      1     -16.0991      1.00000
      2     -16.0153      1.00000
      3      -4.5673      1.00000
      4      -3.7193      1.00000
      5       0.4178      1.00000
[...]
 augmentation part        0.3987710 magnetization      -0.0000000

  free energy =  -0.363919595635E+02  energy without entropy=  -0.363919595635E+02


--------------------------------------------------------------------------------------------------------




--------------------------------------- Iteration     18(   2)  ---------------------------------------


    POTLOK:  cpu time    0.0088: real time    0.0102
    SETDIJ:  cpu time    0.0031: real time    0.0031
     EDDAV:  cpu time    0.8550: real time    0.8550
 BZINTS: Fermi energy:  6.855032; 16.000000 electrons
         Band energy: -36.668760;  BLOECHL correction: -0.000354
       DOS:  cpu time    0.0776: real time    0.0776
    CHARGE:  cpu time    0.0264: real time    0.0265
    MIXING:  cpu time    0.0002: real time    0.0002
    --------------------------------------------
      LOOP:  cpu time    0.9711: real time    0.9727

 eigenvalue-minimisations  :  8032
 total energy-change (2. order) : 0.3581263E-02  (-0.5811477E-03)
 number of electron      15.9999998 magnetization       0.0000001
 augmentation part        0.3992247 magnetization       0.0000001

 eigenvalues of (default mixing * dielectric matrix)
  average eigenvalue GAMMA=   2.1278
  2.1278

  free energy =  -0.363883783010E+02  energy without entropy=  -0.363883783010E+02


--------------------------------------------------------------------------------------------------------




--------------------------------------- Iteration     18(   3)  ---------------------------------------


    POTLOK:  cpu time    0.0094: real time    0.0103
    SETDIJ:  cpu time    0.0030: real time    0.0031
     EDDAV:  cpu time    0.8960: real time    0.8961
 BZINTS: Fermi energy:  6.829738; 16.000000 electrons
         Band energy: -37.417096;  BLOECHL correction: -0.000347
       DOS:  cpu time    0.0807: real time    0.0808
    CHARGE:  cpu time    0.0270: real time    0.0270
    MIXING:  cpu time    0.0002: real time    0.0002
    --------------------------------------------
      LOOP:  cpu time    1.0165: real time    1.0174

 eigenvalue-minimisations  :  8496
 total energy-change (2. order) : 0.1413982E-02  (-0.3030174E-03)
 number of electron      15.9999998 magnetization      -0.0000000
 augmentation part        0.4001285 magnetization      -0.0000001

 eigenvalues of (default mixing * dielectric matrix)
  average eigenvalue GAMMA=   1.5806
  1.2915  1.8697

  free energy =  -0.363869643187E+02  energy without entropy=  -0.363869643187E+02


--------------------------------------------------------------------------------------------------------




--------------------------------------- Iteration     18(   4)  ---------------------------------------


    POTLOK:  cpu time    0.0086: real time    0.0103
    SETDIJ:  cpu time    0.0031: real time    0.0031
     EDDAV:  cpu time    0.9355: real time    0.9355
 BZINTS: Fermi energy:  6.831586; 16.000000 electrons
         Band energy: -37.371374;  BLOECHL correction: -0.000349
       DOS:  cpu time    0.0786: real time    0.0786
    CHARGE:  cpu time    0.0265: real time    0.0265
    MIXING:  cpu time    0.0003: real time    0.0003
    --------------------------------------------
      LOOP:  cpu time    1.0524: real time    1.0542

 eigenvalue-minimisations  :  8896
 total energy-change (2. order) :-0.3273952E-05  (-0.1115530E-04)
 number of electron      15.9999998 magnetization       0.0000001
 augmentation part        0.4001420 magnetization       0.0000001

 eigenvalues of (default mixing * dielectric matrix)
  average eigenvalue GAMMA=   1.8036
  1.1489  2.3276  1.9345

  free energy =  -0.363869675926E+02  energy without entropy=  -0.363869675926E+02


--------------------------------------------------------------------------------------------------------




--------------------------------------- Iteration     18(   5)  ---------------------------------------


    POTLOK:  cpu time    0.0096: real time    0.0103
    SETDIJ:  cpu time    0.0031: real time    0.0031
     EDDAV:  cpu time    0.8968: real time    0.8968
 BZINTS: Fermi energy:  6.831834; 16.000000 electrons
         Band energy: -37.375667;  BLOECHL correction: -0.000349
       DOS:  cpu time    0.0872: real time    0.0872
    CHARGE:  cpu time    0.0266: real time    0.0266
    MIXING:  cpu time    0.0003: real time    0.0003
    --------------------------------------------
      LOOP:  cpu time    1.0236: real time    1.0243

 eigenvalue-minimisations  :  8480
 total energy-change (2. order) : 0.1147155E-05  (-0.2634544E-06)
 number of electron      15.9999998 magnetization      -0.0000001
 augmentation part        0.4001185 magnetization      -0.0000001

 eigenvalues of (default mixing * dielectric matrix)
  average eigenvalue GAMMA=   1.5962
  2.5989  1.8947  1.1791  0.7121

  free energy =  -0.363869664455E+02  energy without entropy=  -0.363869664455E+02


--------------------------------------------------------------------------------------------------------




--------------------------------------- Iteration     18(   6)  ---------------------------------------


    POTLOK:  cpu time    0.0096: real time    0.0102
    SETDIJ:  cpu time    0.0030: real time    0.0030
     EDDAV:  cpu time    0.5879: real time    0.5879
 BZINTS: Fermi energy:  6.831824; 16.000000 electrons
         Band energy: -37.375587;  BLOECHL correction: -0.000349
       DOS:  cpu time    0.0846: real time    0.0846
    --------------------------------------------
      LOOP:  cpu time    0.6850: real time    0.6856

 eigenvalue-minimisations  :  4272
 total energy-change (2. order) : 0.3525307E-07  (-0.4221527E-08)
 number of electron      15.9999998 magnetization      -0.0000001
 augmentation part        0.4001185 magnetization      -0.0000001

  free energy =  -0.363869664102E+02  energy without entropy=  -0.363869664102E+02


--------------------------------------------------------------------------------------------------------




------------------------ aborting loop because EDIFF is reached ----------------------------------------


 


 total charge     
 
# of ion       s       p       d       tot
------------------------------------------
    1        0.882   1.835   0.000   2.716
    2        0.882   1.835   0.000   2.716
    3        0.878   1.850   0.000   2.728
    4        0.878   1.853   0.000   2.730
--------------------------------------------------
tot          3.518   7.372   0.000  10.891
 


 magnetization (x)
 
# of ion       s       p       d       tot
------------------------------------------
    1        0.000  -0.000   0.000  -0.000
    2        0.000  -0.000   0.000  -0.000
    3       -0.000   0.000   0.000   0.000
    4       -0.000   0.000   0.000   0.000
--------------------------------------------------
tot         -0.000   0.000   0.000  -0.000
 
    CHARGE:  cpu time    0.0275: real time    0.0275
    FORLOC:  cpu time    0.0001: real time    0.0001
    FORNL :  cpu time    0.0434: real time    0.0434
    STRESS:  cpu time    0.0921: real time    0.0921
    FORHAR:  cpu time    0.0007: real time    0.0007
    MIXING:  cpu time    0.0003: real time    0.0003
    OFIELD:  cpu time    0.0000: real time    0.0000

  FORCE on cell =-STRESS in cart. coord.  units (eV):
  Direction    XX          YY          ZZ          XY          YZ          ZX
  --------------------------------------------------------------------------------------
  Alpha Z    46.45134    46.45134    46.45134
  Ewald     -23.94975   -23.95047  -523.63679    -0.00049     0.00000     0.00000
  Hartree    94.20037    94.20036   -72.57028    -0.00001    -0.00000     0.00000
  E(xc)     -59.40784   -59.40784   -61.14637    -0.00000     0.00000    -0.00000
  Local    -281.78966  -281.78941   349.08435     0.00024     0.00000    -0.00000
  n-local   -14.36611   -15.38174   -13.59170    -1.02546     0.05510     0.08228
  augment    -1.66343    -1.66339    -1.49491     0.00004     0.00000     0.00000
  Kinetic   242.21655   248.96733   281.33031     7.13923    -0.62806    -1.04089
  Fock        0.00000     0.00000     0.00000     0.00000     0.00000     0.00000
  -------------------------------------------------------------------------------------
  Total       4.55882     4.55883     4.42595    -0.00000    -0.00000    -0.00000
  in kB     260.24945   260.24960   252.66411    -0.00012    -0.00000    -0.00000
  external pressure =        7.72 kB  Pullay stress =      250.00 kB



--------------------------------------------------------------------------------------------------------



  FREE ENERGIE OF THE ION-ELECTRON SYSTEM (eV)
  ---------------------------------------------------
  free  energy   TOTEN  =       -36.38696641 eV

  energy  without entropy=      -36.38696641  energy(sigma->0) =      -36.38696641
  enthalpy is  TOTEN    =       -32.00768301 eV   P V=        4.37928340

 d Force = 0.0000000E+00[ 0.000E+00, 0.000E+00]  d Energy = 0.2601628E-02-0.260E-02
 d Force = 0.0000000E+00[ 0.000E+00, 0.000E+00]  d Ewald  = 0.3796651E+01-0.380E+01


--------------------------------------------------------------------------------------------------------


    POTLOK:  cpu time    0.0094: real time    0.0094


--------------------------------------------------------------------------------------------------------


 Conjugate gradient step on ions:
 trial-energy change:   -0.002602  1 .order   -0.002555   -0.006554    0.001445
  (g-gl).g = 0.525E-03      g.g   = 0.474E-03  gl.gl    = 0.533E-03
 g(Force)  = 0.178E-42   g(Stress)= 0.474E-03 ortho     = 0.864E-05
 gamma     =   0.98555
 trial     =  13.58659
 opt step  =  11.20140  (harmonic =  11.13203) maximal distance =0.00000000
 next E    =   -32.007810   (d E  =  -0.00273)


--------------------------------------------------------------------------------------------------------


    WAVPRE:  cpu time    0.0012: real time    0.0040
    FEWALD:  cpu time    0.0001: real time    0.0001
    GENKIN:  cpu time    0.0058: real time    0.0058
    ORTHCH:  cpu time    0.0345: real time    0.0345
     LOOP+:  cpu time    5.9276: real time    5.9416


--------------------------------------- Iteration     19(   1)  ---------------------------------------


    POTLOK:  cpu time    0.0091: real time    0.0114
    SETDIJ:  cpu time    0.0032: real time    0.0032
     EDDAV:  cpu time    0.8282: real time    0.8283
 BZINTS: Fermi energy:  6.799752; 16.000000 electrons
         Band energy: -37.918861;  BLOECHL correction: -0.000342
       DOS:  cpu time    0.0754: real time    0.0754
    CHARGE:  cpu time    0.0266: real time    0.0266
    MIXING:  cpu time    0.0002: real time    0.0002
    --------------------------------------------
      LOOP:  cpu time    0.9428: real time    0.9451

 eigenvalue-minimisations  :  7456
 total energy-change (2. order) :-0.1048211E-01  (-0.5064687E-03)
 number of electron      15.9999998 magnetization      -0.0000000
 augmentation part        0.3998198 magnetization      -0.0000000

  free energy =  -0.363974485578E+02  energy without entropy=  -0.363974485578E+02


--------------------------------------------------------------------------------------------------------




--------------------------------------- Iteration     19(   2)  ---------------------------------------


    POTLOK:  cpu time    0.0090: real time    0.0101
    SETDIJ:  cpu time    0.0030: real time    0.0030
     EDDAV:  cpu time    0.8624: real time    0.8625
 BZINTS: Fermi energy:  6.803940; 16.000000 electrons
         Band energy: -37.796182;  BLOECHL correction: -0.000344
       DOS:  cpu time    0.0778: real time    0.0778
    CHARGE:  cpu time    0.0270: real time    0.0270
    MIXING:  cpu time    0.0002: real time    0.0002
    --------------------------------------------
      LOOP:  cpu time    0.9795: real time    0.9806

 eigenvalue-minimisations  :  7920
 total energy-change (2. order) : 0.1101714E-03  (-0.1780976E-04)
 number of electron      15.9999998 magnetization       0.0000000
 augmentation part        0.3997405 magnetization       0.0000000

 eigenvalues of (default mixing * dielectric matrix)
  average eigenvalue GAMMA=   2.1314
  2.1314

  free energy =  -0.363973383864E+02  energy without entropy=  -0.363973383864E+02


--------------------------------------------------------------------------------------------------------




--------------------------------------- Iteration     19(   3)  ---------------------------------------


    POTLOK:  cpu time    0.0093: real time    0.0099
    SETDIJ:  cpu time    0.0031: real time    0.0031
     EDDAV:  cpu time    0.8994: real time    0.8995
 BZINTS: Fermi energy:  6.808409; 16.000000 electrons
         Band energy: -37.663942;  BLOECHL correction: -0.000345
       DOS:  cpu time    0.0869: real time    0.0869
    CHARGE:  cpu time    0.0269: real time    0.0269
    MIXING:  cpu time    0.0002: real time    0.0002
    --------------------------------------------
      LOOP:  cpu time    1.0258: real time    1.0265

 eigenvalue-minimisations  :  8552
 total energy-change (2. order) : 0.4434545E-04  (-0.9430592E-05)
 number of electron      15.9999998 magnetization      -0.0000000
 augmentation part        0.3995808 magnetization      -0.0000000

 eigenvalues of (default mixing * dielectric matrix)
  average eigenvalue GAMMA=   1.5756
  1.2763  1.8749

  free energy =  -0.363972940409E+02  energy without entropy=  -0.363972940409E+02


--------------------------------------------------------------------------------------------------------




--------------------------------------- Iteration     19(   4)  ---------------------------------------


    POTLOK:  cpu time    0.0092: real time    0.0103
    SETDIJ:  cpu time    0.0032: real time    0.0032
     EDDAV:  cpu time    0.9248: real time    0.9249
 BZINTS: Fermi energy:  6.808079; 16.000000 electrons
         Band energy: -37.672154;  BLOECHL correction: -0.000345
       DOS:  cpu time    0.0787: real time    0.0787
    --------------------------------------------
      LOOP:  cpu time    1.0159: real time    1.0170

 eigenvalue-minimisations  :  8792
 total energy-change (2. order) : 0.3269379E-06  (-0.3497270E-06)
 number of electron      15.9999998 magnetization      -0.0000000
 augmentation part        0.3995808 magnetization      -0.0000000

  free energy =  -0.363972937140E+02  energy without entropy=  -0.363972937140E+02


--------------------------------------------------------------------------------------------------------




------------------------ aborting loop because EDIFF is reached ----------------------------------------


 


 total charge     
 
# of ion       s       p       d       tot
------------------------------------------
    1        0.881   1.833   0.000   2.714
    2        0.881   1.833   0.000   2.714
    3        0.877   1.848   0.000   2.726
    4        0.877   1.851   0.000   2.728
--------------------------------------------------
tot          3.517   7.365   0.000  10.882
 


 magnetization (x)
 
# of ion       s       p       d       tot
------------------------------------------
    1        0.000  -0.000   0.000  -0.000
    2        0.000  -0.000   0.000  -0.000
    3       -0.000   0.000   0.000   0.000
    4       -0.000   0.000   0.000   0.000
--------------------------------------------------
tot         -0.000   0.000   0.000  -0.000
 
    CHARGE:  cpu time    0.0284: real time    0.0284
    FORLOC:  cpu time    0.0001: real time    0.0001
    FORNL :  cpu time    0.0436: real time    0.0436
    STRESS:  cpu time    0.0919: real time    0.0919
    FORHAR:  cpu time    0.0007: real time    0.0007
    MIXING:  cpu time    0.0003: real time    0.0003
    OFIELD:  cpu time    0.0000: real time    0.0000

  FORCE on cell =-STRESS in cart. coord.  units (eV):
  Direction    XX          YY          ZZ          XY          YZ          ZX
  --------------------------------------------------------------------------------------
  Alpha Z    46.34337    46.34337    46.34337
  Ewald     -23.58475   -23.58546  -523.69764    -0.00049     0.00000     0.00000
  Hartree    94.43050    94.43049   -72.77670    -0.00001    -0.00000     0.00000
  E(xc)     -59.38466   -59.38466   -61.12492    -0.00000     0.00000    -0.00000
  Local    -282.32590  -282.32565   349.50206     0.00024     0.00000    -0.00000
  n-local   -14.33688   -15.35548   -13.57223    -1.01381     0.05490     0.08181
  augment    -1.65960    -1.65955    -1.49241     0.00004    -0.00000    -0.00000
  Kinetic   242.04239   248.80447   281.20550     7.11349    -0.62633    -1.03528
  Fock        0.00000     0.00000     0.00000     0.00000     0.00000     0.00000
  -------------------------------------------------------------------------------------
  Total       4.39600     4.39600     4.38703    -0.00000     0.00000     0.00000
  in kB     250.37099   250.37113   249.85995    -0.00011     0.00000     0.00000
  external pressure =        0.20 kB  Pullay stress =      250.00 kB



--------------------------------------------------------------------------------------------------------



  FREE ENERGIE OF THE ION-ELECTRON SYSTEM (eV)
  ---------------------------------------------------
  free  energy   TOTEN  =       -36.39729371 eV

  energy  without entropy=      -36.39729371  energy(sigma->0) =      -36.39729371
  enthalpy is  TOTEN    =       -32.00780761 eV   P V=        4.38948610

 d Force = 0.0000000E+00[ 0.000E+00, 0.000E+00]  d Energy = 0.1246026E-03-0.125E-03
 d Force = 0.0000000E+00[ 0.000E+00, 0.000E+00]  d Ewald  =-0.6691644E+00 0.669E+00


--------------------------------------------------------------------------------------------------------


    POTLOK:  cpu time    0.0096: real time    0.0096


--------------------------------------------------------------------------------------------------------




--------------------------------------------------------------------------------------------------------


  
 reached required accuracy - stopping structural energy minimisation
     LOOP+:  cpu time    4.1492: real time    4.1601
    4ORBIT:  cpu time    0.0000: real time    0.0000
 


 total charge     
 
# of ion       s       p       d       tot
------------------------------------------
    1        0.881   1.833   0.000   2.714
    2        0.881   1.833   0.000   2.714
    3        0.877   1.848   0.000   2.726
    4        0.877   1.851   0.000   2.728
--------------------------------------------------
tot          3.517   7.365   0.000  10.882
 


 magnetization (x)
 
# of ion       s       p       d       tot
------------------------------------------
    1        0.000  -0.000   0.000  -0.000
    2        0.000  -0.000   0.000  -0.000
    3       -0.000   0.000   0.000   0.000
    4       -0.000   0.000   0.000   0.000
--------------------------------------------------
tot         -0.000   0.000   0.000  -0.000
 
 BZINTS: Fermi energy:  6.808079; 16.000000 electrons
         Band energy: -37.672154;  BLOECHL correction: -0.000345

 total amount of memory used by VASP MPI-rank0    35339. kBytes
=======================================================================

   base      :      30000. kBytes
   nonl-proj :       1376. kBytes
   fftplans  :        333. kBytes
   grid      :        783. kBytes
   one-center:          6. kBytes
   wavefun   :       2841. kBytes
 
  
  
 General timing and accounting informations for this job:
 ========================================================
  
                  Total CPU time used (sec):      142.626
                            User time (sec):      142.406
                          System time (sec):        0.220
                         Elapsed time (sec):      142.944
  
                   Maximum memory used (kb):       63028.
                   Average memory used (kb):           0.
  
                          Minor page faults:         7100
                          Major page faults:          347
                 Voluntary context switches:         1339
