PROCAR lm decomposed
# of k-points:  111         # of bands:   16         # of ions:    4

 k-point     1 :    0.00000000 0.00000000 0.00000000     weight = 0.00077160

band     1 # energy  -13.51954812 # occ.  1.00000000
 
ion      s     py     pz     px    dxy    dyz    dz2    dxz  x2-y2    tot
    1  0.158  0.000  0.000  0.000  0.000  0.000  0.000  0.000  0.000  0.158
    2  0.158  0.000  0.000  0.000  0.000  0.000  0.000  0.000  0.000  0.158
    3  0.156  0.000  0.000  0.000  0.000  0.000  0.000  0.000  0.000  0.156
    4  0.156  0.000  0.000  0.000  0.000  0.000  0.000  0.000  0.000  0.156
tot    0.628  0.000  0.000  0.000  0.000  0.000  0.000  0.000  0.000  0.628
 
band     2 # energy  -12.38068311 # occ.  1.00000000
 
ion      s     py     pz     px    dxy    dyz    dz2    dxz  x2-y2    tot
    1  0.173  0.000  0.000  0.000  0.000  0.000  0.000  0.000  0.000  0.173
    2  0.173  0.000  0.000  0.000  0.000  0.000  0.000  0.000  0.000  0.173
    3  0.173  0.000  0.000  0.000  0.000  0.000  0.000  0.000  0.000  0.173
    4  0.173  0.000  0.000  0.000  0.000  0.000  0.000  0.000  0.000  0.173
tot    0.692  0.000  0.000  0.000  0.000  0.000  0.000  0.000  0.000  0.692
 
band     3 # energy   -3.01867296 # occ.  1.00000000
 
ion      s     py     pz     px    dxy    dyz    dz2    dxz  x2-y2    tot
    1  0.000  0.000  0.096  0.000  0.000  0.000  0.000  0.000  0.000  0.096
    2  0.000  0.000  0.096  0.000  0.000  0.000  0.000  0.000  0.000  0.096
    3  0.000  0.000  0.093  0.000  0.000  0.000  0.000  0.000  0.000  0.093
    4  0.000  0.000  0.093  0.000  0.000  0.000  0.000  0.000  0.000  0.093
tot    0.000  0.000  0.379  0.000  0.000  0.000  0.000  0.000  0.000  0.379
 
band     4 # energy    1.68654828 # occ.  1.00000000
 
ion      s     py     pz     px    dxy    dyz    dz2    dxz  x2-y2    tot
    1  0.000  0.000  0.144  0.000  0.000  0.000  0.000  0.000  0.000  0.144
    2  0.000  0.000  0.144  0.000  0.000  0.000  0.000  0.000  0.000  0.144
    3  0.000  0.000  0.146  0.000  0.000  0.000  0.000  0.000  0.000  0.146
    4  0.000  0.000  0.146  0.000  0.000  0.000  0.000  0.000  0.000  0.146
tot    0.000  0.000  0.579  0.000  0.000  0.000  0.000  0.000  0.000  0.579
 
band     5 # energy    3.93884892 # occ.  1.00000000
 
ion      s     py     pz     px    dxy    dyz    dz2    dxz  x2-y2    tot
    1  0.000  0.052  0.000  0.162  0.000  0.000  0.000  0.000  0.000  0.214
    2  0.000  0.052  0.000  0.162  0.000  0.000  0.000  0.000  0.000  0.214
    3  0.000  0.050  0.000  0.157  0.000  0.000  0.000  0.000  0.000  0.207
    4  0.000  0.050  0.000  0.157  0.000  0.000  0.000  0.000  0.000  0.207
tot    0.000  0.204  0.000  0.637  0.000  0.000  0.000  0.000  0.000  0.841
 
band     6 # energy    3.93890774 # occ.  1.00000000
 
ion      s     py     pz     px    dxy    dyz    dz2    dxz  x2-y2    tot
    1  0.000  0.162  0.000  0.052  0.000  0.000  0.000  0.000  0.000  0.214
    2  0.000  0.162  0.000  0.052  0.000  0.000  0.000  0.000  0.000  0.214
    3  0.000  0.157  0.000  0.050  0.000  0.000  0.000  0.000  0.000  0.207
    4  0.000  0.157  0.000  0.050  0.000  0.000  0.000  0.000  0.000  0.207
tot    0.000  0.637  0.000  0.204  0.000  0.000  0.000  0.000  0.000  0.841
 
band     7 # energy    4.04725646 # occ.  1.00000000
 
ion      s     py     pz     px    dxy    dyz    dz2    dxz  x2-y2    tot
    1  0.000  0.051  0.000  0.160  0.000  0.000  0.000  0.000  0.000  0.211
    2  0.000  0.051  0.000  0.160  0.000  0.000  0.000  0.000  0.000  0.211
    3  0.000  0.052  0.000  0.162  0.000  0.000  0.000  0.000  0.000  0.213
    4  0.000  0.052  0.000  0.162  0.000  0.000  0.000  0.000  0.000  0.213
tot    0.000  0.205  0.000  0.643  0.000  0.000  0.000  0.000  0.000  0.848
 
band     8 # energy    4.04731461 # occ.  1.00000000
 
ion      s     py     pz     px    dxy    dyz    dz2    dxz  x2-y2    tot
    1  0.000  0.160  0.000  0.051  0.000  0.000  0.000  0.000  0.000  0.211
    2  0.000  0.160  0.000  0.051  0.000  0.000  0.000  0.000  0.000  0.211
    3  0.000  0.162  0.000  0.052  0.000  0.000  0.000  0.000  0.000  0.213
    4  0.000  0.162  0.000  0.052  0.000  0.000  0.000  0.000  0.000  0.213
tot    0.000  0.643  0.000  0.205  0.000  0.000  0.000  0.000  0.000  0.848
 
band     9 # energy   13.58010311 # occ.  0.00000000
 
ion      s     py     pz     px    dxy    dyz    dz2    dxz  x2-y2    tot
    1  0.031  0.000  0.000  0.000  0.000  0.000  0.000  0.000  0.000  0.031
    2  0.031  0.000  0.000  0.000  0.000  0.000  0.000  0.000  0.000  0.031
    3  0.033  0.000  0.000  0.000  0.000  0.000  0.000  0.000  0.000  0.033
    4  0.033  0.000  0.000  0.000  0.000  0.000  0.000  0.000  0.000  0.033
tot    0.128  0.000  0.000  0.000  0.000  0.000  0.000  0.000  0.000  0.128
 
band    10 # energy   15.51757062 # occ.  0.00000000
 
ion      s     py     pz     px    dxy    dyz    dz2    dxz  x2-y2    tot
    1  0.000  0.113  0.000  0.022  0.000  0.000  0.000  0.000  0.000  0.135
    2  0.000  0.113  0.000  0.022  0.000  0.000  0.000  0.000  0.000  0.135
    3  0.000  0.104  0.000  0.020  0.000  0.000  0.000  0.000  0.000  0.124
    4  0.000  0.104  0.000  0.020  0.000  0.000  0.000  0.000  0.000  0.124
tot    0.000  0.434  0.000  0.084  0.000  0.000  0.000  0.000  0.000  0.518
 
band    11 # energy   15.51763251 # occ.  0.00000000
 
ion      s     py     pz     px    dxy    dyz    dz2    dxz  x2-y2    tot
    1  0.000  0.022  0.000  0.113  0.000  0.000  0.000  0.000  0.000  0.135
    2  0.000  0.022  0.000  0.113  0.000  0.000  0.000  0.000  0.000  0.135
    3  0.000  0.020  0.000  0.104  0.000  0.000  0.000  0.000  0.000  0.124
    4  0.000  0.020  0.000  0.104  0.000  0.000  0.000  0.000  0.000  0.124
tot    0.000  0.084  0.000  0.434  0.000  0.000  0.000  0.000  0.000  0.518
 
band    12 # energy   15.75680151 # occ.  0.00000000
 
ion      s     py     pz     px    dxy    dyz    dz2    dxz  x2-y2    tot
    1  0.000  0.105  0.000  0.021  0.000  0.000  0.000  0.000  0.000  0.126
    2  0.000  0.105  0.000  0.021  0.000  0.000  0.000  0.000  0.000  0.126
    3  0.000  0.117  0.000  0.023  0.000  0.000  0.000  0.000  0.000  0.140
    4  0.000  0.117  0.000  0.023  0.000  0.000  0.000  0.000  0.000  0.140
tot    0.000  0.442  0.000  0.088  0.000  0.000  0.000  0.000  0.000  0.531
 
band    13 # energy   15.75686596 # occ.  0.00000000
 
ion      s     py     pz     px    dxy    dyz    dz2    dxz  x2-y2    tot
    1  0.000  0.021  0.000  0.105  0.000  0.000  0.000  0.000  0.000  0.126
    2  0.000  0.021  0.000  0.105  0.000  0.000  0.000  0.000  0.000  0.126
    3  0.000  0.023  0.000  0.117  0.000  0.000  0.000  0.000  0.000  0.140
    4  0.000  0.023  0.000  0.117  0.000  0.000  0.000  0.000  0.000  0.140
tot    0.000  0.088  0.000  0.442  0.000  0.000  0.000  0.000  0.000  0.531
 
band    14 # energy   18.52374638 # occ.  0.00000000
 
ion      s     py     pz     px    dxy    dyz    dz2    dxz  x2-y2    tot
    1  0.000  0.000  0.201  0.000  0.000  0.000  0.000  0.000  0.000  0.201
    2  0.000  0.000  0.201  0.000  0.000  0.000  0.000  0.000  0.000  0.201
    3  0.000  0.000  0.177  0.000  0.000  0.000  0.000  0.000  0.000  0.177
    4  0.000  0.000  0.177  0.000  0.000  0.000  0.000  0.000  0.000  0.177
tot    0.000  0.000  0.756  0.000  0.000  0.000  0.000  0.000  0.000  0.756
 
band    15 # energy   19.37355155 # occ.  0.00000000
 
ion      s     py     pz     px    dxy    dyz    dz2    dxz  x2-y2    tot
    1  0.000  0.000  0.200  0.000  0.000  0.000  0.000  0.000  0.000  0.200
    2  0.000  0.000  0.200  0.000  0.000  0.000  0.000  0.000  0.000  0.200
    3  0.000  0.000  0.201  0.000  0.000  0.000  0.000  0.000  0.000  0.201
    4  0.000  0.000  0.201  0.000  0.000  0.000  0.000  0.000  0.000  0.201
tot    0.000  0.000  0.803  0.000  0.000  0.000  0.000  0.000  0.000  0.803
 
band    16 # energy   20.11736130 # occ.  0.00000000
 
ion      s     py     pz     px    dxy    dyz    dz2    dxz  x2-y2    tot
    1  0.178  0.000  0.000  0.000  0.000  0.000  0.000  0.000  0.000  0.178
    2  0.178  0.000  0.000  0.000  0.000  0.000  0.000  0.000  0.000  0.178
    3  0.162  0.000  0.000  0.000  0.000  0.000  0.000  0.000  0.000  0.162
    4  0.162  0.000  0.000  0.000  0.000  0.000  0.000  0.000  0.000  0.162
tot    0.680  0.000  0.000  0.000  0.000  0.000  0.000  0.000  0.000  0.680
 

 k-point     2 :    0.05555556 0.00000000 0.00000000     weight = 0.00462963

band     1 # energy  -13.44233188 # occ.  1.00000000
 
ion      s     py     pz     px    dxy    dyz    dz2    dxz  x2-y2    tot
    1  0.157  0.000  0.000  0.001  0.000  0.000  0.000  0.000  0.000  0.158
    2  0.157  0.000  0.000  0.001  0.000  0.000  0.000  0.000  0.000  0.158
    3  0.156  0.000  0.000  0.001  0.000  0.000  0.000  0.000  0.000  0.157
    4  0.156  0.000  0.000  0.001  0.000  0.000  0.000  0.000  0.000  0.157
tot    0.626  0.001  0.000  0.002  0.000  0.000  0.000  0.000  0.000  0.629
 
band     2 # energy  -12.30758645 # occ.  1.00000000
 
ion      s     py     pz     px    dxy    dyz    dz2    dxz  x2-y2    tot
    1  0.172  0.000  0.000  0.001  0.000  0.000  0.000  0.000  0.000  0.173
    2  0.172  0.000  0.000  0.001  0.000  0.000  0.000  0.000  0.000  0.173
    3  0.172  0.000  0.000  0.001  0.000  0.000  0.000  0.000  0.000  0.173
    4  0.172  0.000  0.000  0.001  0.000  0.000  0.000  0.000  0.000  0.173
tot    0.689  0.001  0.000  0.003  0.000  0.000  0.000  0.000  0.000  0.692
 
band     3 # energy   -2.92438583 # occ.  1.00000000
 
ion      s     py     pz     px    dxy    dyz    dz2    dxz  x2-y2    tot
    1  0.000  0.000  0.096  0.000  0.000  0.000  0.000  0.000  0.000  0.096
    2  0.000  0.000  0.096  0.000  0.000  0.000  0.000  0.000  0.000  0.096
    3  0.000  0.000  0.094  0.000  0.000  0.000  0.000  0.000  0.000  0.094
    4  0.000  0.000  0.094  0.000  0.000  0.000  0.000  0.000  0.000  0.094
tot    0.000  0.000  0.380  0.000  0.000  0.000  0.000  0.000  0.000  0.380
 
band     4 # energy    1.76886386 # occ.  1.00000000
 
ion      s     py     pz     px    dxy    dyz    dz2    dxz  x2-y2    tot
    1  0.000  0.000  0.144  0.000  0.000  0.000  0.000  0.000  0.000  0.144
    2  0.000  0.000  0.144  0.000  0.000  0.000  0.000  0.000  0.000  0.144
    3  0.000  0.000  0.146  0.000  0.000  0.000  0.000  0.000  0.000  0.146
    4  0.000  0.000  0.146  0.000  0.000  0.000  0.000  0.000  0.000  0.146
tot    0.000  0.000  0.580  0.000  0.000  0.000  0.000  0.000  0.000  0.580
 
band     5 # energy    3.61619320 # occ.  1.00000000
 
ion      s     py     pz     px    dxy    dyz    dz2    dxz  x2-y2    tot
    1  0.004  0.052  0.000  0.155  0.000  0.000  0.000  0.000  0.000  0.211
    2  0.004  0.052  0.000  0.155  0.000  0.000  0.000  0.000  0.000  0.211
    3  0.004  0.050  0.000  0.151  0.000  0.000  0.000  0.000  0.000  0.206
    4  0.004  0.050  0.000  0.151  0.000  0.000  0.000  0.000  0.000  0.206
tot    0.017  0.204  0.000  0.613  0.000  0.000  0.000  0.000  0.000  0.834
 
band     6 # energy    3.75978892 # occ.  1.00000000
 
ion      s     py     pz     px    dxy    dyz    dz2    dxz  x2-y2    tot
    1  0.004  0.051  0.000  0.155  0.000  0.000  0.000  0.000  0.000  0.210
    2  0.004  0.050  0.000  0.155  0.000  0.000  0.000  0.000  0.000  0.210
    3  0.004  0.050  0.000  0.157  0.000  0.000  0.000  0.000  0.000  0.212
    4  0.004  0.050  0.000  0.158  0.000  0.000  0.000  0.000  0.000  0.212
tot    0.017  0.202  0.000  0.625  0.000  0.000  0.000  0.000  0.000  0.844
 
band     7 # energy    3.76083185 # occ.  1.00000000
 
ion      s     py     pz     px    dxy    dyz    dz2    dxz  x2-y2    tot
    1  0.000  0.159  0.000  0.052  0.000  0.000  0.000  0.000  0.000  0.212
    2  0.000  0.160  0.000  0.052  0.000  0.000  0.000  0.000  0.000  0.212
    3  0.000  0.156  0.000  0.050  0.000  0.000  0.000  0.000  0.000  0.206
    4  0.000  0.157  0.000  0.050  0.000  0.000  0.000  0.000  0.000  0.206
tot    0.000  0.632  0.000  0.204  0.000  0.000  0.000  0.000  0.000  0.836
 
band     8 # energy    3.89483896 # occ.  1.00000000
 
ion      s     py     pz     px    dxy    dyz    dz2    dxz  x2-y2    tot
    1  0.000  0.158  0.000  0.053  0.000  0.000  0.000  0.000  0.000  0.211
    2  0.000  0.158  0.000  0.053  0.000  0.000  0.000  0.000  0.000  0.211
    3  0.000  0.159  0.000  0.053  0.000  0.000  0.000  0.000  0.000  0.212
    4  0.000  0.159  0.000  0.053  0.000  0.000  0.000  0.000  0.000  0.212
tot    0.000  0.634  0.000  0.211  0.000  0.000  0.000  0.000  0.000  0.845
 
band     9 # energy   13.65440048 # occ.  0.00000000
 
ion      s     py     pz     px    dxy    dyz    dz2    dxz  x2-y2    tot
    1  0.029  0.000  0.000  0.001  0.000  0.000  0.000  0.000  0.000  0.031
    2  0.029  0.000  0.000  0.001  0.000  0.000  0.000  0.000  0.000  0.031
    3  0.032  0.001  0.000  0.002  0.000  0.000  0.000  0.000  0.000  0.034
    4  0.032  0.001  0.000  0.002  0.000  0.000  0.000  0.000  0.000  0.034
tot    0.122  0.002  0.000  0.006  0.000  0.000  0.000  0.000  0.000  0.130
 
band    10 # energy   15.54725201 # occ.  0.00000000
 
ion      s     py     pz     px    dxy    dyz    dz2    dxz  x2-y2    tot
    1  0.002  0.033  0.000  0.099  0.000  0.000  0.000  0.000  0.000  0.134
    2  0.002  0.033  0.000  0.099  0.000  0.000  0.000  0.000  0.000  0.134
    3  0.003  0.030  0.000  0.089  0.000  0.000  0.000  0.000  0.000  0.122
    4  0.003  0.030  0.000  0.089  0.000  0.000  0.000  0.000  0.000  0.122
tot    0.010  0.125  0.000  0.375  0.000  0.000  0.000  0.000  0.000  0.511
 
band    11 # energy   15.82134897 # occ.  0.00000000
 
ion      s     py     pz     px    dxy    dyz    dz2    dxz  x2-y2    tot
    1  0.005  0.030  0.000  0.090  0.000  0.000  0.000  0.000  0.000  0.124
    2  0.005  0.030  0.000  0.090  0.000  0.000  0.000  0.000  0.000  0.124
    3  0.003  0.034  0.000  0.101  0.000  0.000  0.000  0.000  0.000  0.138
    4  0.003  0.034  0.000  0.101  0.000  0.000  0.000  0.000  0.000  0.138
tot    0.015  0.127  0.000  0.382  0.000  0.000  0.000  0.000  0.000  0.524
 
band    12 # energy   15.85099503 # occ.  0.00000000
 
ion      s     py     pz     px    dxy    dyz    dz2    dxz  x2-y2    tot
    1  0.000  0.102  0.000  0.034  0.000  0.000  0.000  0.000  0.000  0.136
    2  0.000  0.102  0.000  0.034  0.000  0.000  0.000  0.000  0.000  0.136
    3  0.000  0.094  0.000  0.031  0.000  0.000  0.000  0.000  0.000  0.126
    4  0.000  0.094  0.000  0.031  0.000  0.000  0.000  0.000  0.000  0.126
tot    0.000  0.393  0.000  0.131  0.000  0.000  0.000  0.000  0.000  0.523
 
band    13 # energy   16.08966620 # occ.  0.00000000
 
ion      s     py     pz     px    dxy    dyz    dz2    dxz  x2-y2    tot
    1  0.000  0.096  0.000  0.032  0.000  0.000  0.000  0.000  0.000  0.127
    2  0.000  0.096  0.000  0.032  0.000  0.000  0.000  0.000  0.000  0.127
    3  0.000  0.106  0.000  0.035  0.000  0.000  0.000  0.000  0.000  0.141
    4  0.000  0.106  0.000  0.035  0.000  0.000  0.000  0.000  0.000  0.141
tot    0.000  0.402  0.000  0.134  0.000  0.000  0.000  0.000  0.000  0.537
 
band    14 # energy   18.22402155 # occ.  0.00000000
 
ion      s     py     pz     px    dxy    dyz    dz2    dxz  x2-y2    tot
    1  0.000  0.000  0.197  0.000  0.000  0.000  0.000  0.000  0.000  0.197
    2  0.000  0.000  0.197  0.000  0.000  0.000  0.000  0.000  0.000  0.197
    3  0.000  0.000  0.173  0.000  0.000  0.000  0.000  0.000  0.000  0.173
    4  0.000  0.000  0.173  0.000  0.000  0.000  0.000  0.000  0.000  0.173
tot    0.000  0.000  0.740  0.000  0.000  0.000  0.000  0.000  0.000  0.740
 
band    15 # energy   19.11566543 # occ.  0.00000000
 
ion      s     py     pz     px    dxy    dyz    dz2    dxz  x2-y2    tot
    1  0.000  0.000  0.197  0.000  0.000  0.000  0.000  0.000  0.000  0.197
    2  0.000  0.000  0.197  0.000  0.000  0.000  0.000  0.000  0.000  0.197
    3  0.000  0.000  0.198  0.000  0.000  0.000  0.000  0.000  0.000  0.198
    4  0.000  0.000  0.198  0.000  0.000  0.000  0.000  0.000  0.000  0.198
tot    0.000  0.000  0.790  0.000  0.000  0.000  0.000  0.000  0.000  0.790
 
band    16 # energy   20.24606300 # occ.  0.00000000
 
ion      s     py     pz     px    dxy    dyz    dz2    dxz  x2-y2    tot
    1  0.171  0.002  0.000  0.006  0.000  0.000  0.000  0.000  0.000  0.179
    2  0.171  0.002  0.000  0.006  0.000  0.000  0.000  0.000  0.000  0.179
    3  0.158  0.001  0.000  0.003  0.000  0.000  0.000  0.000  0.000  0.162
    4  0.158  0.001  0.000  0.003  0.000  0.000  0.000  0.000  0.000  0.162
tot    0.657  0.006  0.000  0.017  0.000  0.000  0.000  0.000  0.000  0.681
 

 k-point     3 :    0.11111111 0.00000000 0.00000000     weight = 0.00462963

band     1 # energy  -13.21099453 # occ.  1.00000000
 
ion      s     py     pz     px    dxy    dyz    dz2    dxz  x2-y2    tot
    1  0.155  0.001  0.000  0.002  0.000  0.000  0.000  0.000  0.000  0.158
    2  0.155  0.001  0.000  0.002  0.000  0.000  0.000  0.000  0.000  0.158
    3  0.154  0.001  0.000  0.002  0.000  0.000  0.000  0.000  0.000  0.157
    4  0.154  0.001  0.000  0.002  0.000  0.000  0.000  0.000  0.000  0.157
tot    0.619  0.003  0.000  0.009  0.000  0.000  0.000  0.000  0.000  0.632
 
band     2 # energy  -12.08867451 # occ.  1.00000000
 
ion      s     py     pz     px    dxy    dyz    dz2    dxz  x2-y2    tot
    1  0.170  0.001  0.000  0.003  0.000  0.000  0.000  0.000  0.000  0.174
    2  0.170  0.001  0.000  0.003  0.000  0.000  0.000  0.000  0.000  0.174
    3  0.170  0.001  0.000  0.003  0.000  0.000  0.000  0.000  0.000  0.173
    4  0.170  0.001  0.000  0.003  0.000  0.000  0.000  0.000  0.000  0.173
tot    0.680  0.003  0.000  0.010  0.000  0.000  0.000  0.000  0.000  0.694
 
band     3 # energy   -2.64272102 # occ.  1.00000000
 
ion      s     py     pz     px    dxy    dyz    dz2    dxz  x2-y2    tot
    1  0.000  0.000  0.097  0.000  0.000  0.000  0.000  0.000  0.000  0.097
    2  0.000  0.000  0.097  0.000  0.000  0.000  0.000  0.000  0.000  0.097
    3  0.000  0.000  0.094  0.000  0.000  0.000  0.000  0.000  0.000  0.094
    4  0.000  0.000  0.094  0.000  0.000  0.000  0.000  0.000  0.000  0.094
tot    0.000  0.000  0.381  0.000  0.000  0.000  0.000  0.000  0.000  0.381
 
band     4 # energy    2.01431689 # occ.  1.00000000
 
ion      s     py     pz     px    dxy    dyz    dz2    dxz  x2-y2    tot
    1  0.000  0.000  0.144  0.000  0.000  0.000  0.000  0.000  0.000  0.144
    2  0.000  0.000  0.144  0.000  0.000  0.000  0.000  0.000  0.000  0.144
    3  0.000  0.000  0.146  0.000  0.000  0.000  0.000  0.000  0.000  0.146
    4  0.000  0.000  0.146  0.000  0.000  0.000  0.000  0.000  0.000  0.146
tot    0.000  0.000  0.581  0.000  0.000  0.000  0.000  0.000  0.000  0.581
 
band     5 # energy    2.73864007 # occ.  1.00000000
 
ion      s     py     pz     px    dxy    dyz    dz2    dxz  x2-y2    tot
    1  0.015  0.048  0.000  0.143  0.000  0.000  0.000  0.000  0.000  0.206
    2  0.015  0.048  0.000  0.143  0.000  0.000  0.000  0.000  0.000  0.206
    3  0.015  0.047  0.000  0.140  0.000  0.000  0.000  0.000  0.000  0.202
    4  0.015  0.047  0.000  0.140  0.000  0.000  0.000  0.000  0.000  0.202
tot    0.060  0.189  0.000  0.567  0.000  0.000  0.000  0.000  0.000  0.816
 
band     6 # energy    2.95972485 # occ.  1.00000000
 
ion      s     py     pz     px    dxy    dyz    dz2    dxz  x2-y2    tot
    1  0.015  0.048  0.000  0.145  0.000  0.000  0.000  0.000  0.000  0.208
    2  0.015  0.048  0.000  0.145  0.000  0.000  0.000  0.000  0.000  0.208
    3  0.015  0.048  0.000  0.145  0.000  0.000  0.000  0.000  0.000  0.208
    4  0.015  0.048  0.000  0.145  0.000  0.000  0.000  0.000  0.000  0.208
tot    0.059  0.193  0.000  0.580  0.000  0.000  0.000  0.000  0.000  0.832
 
band     7 # energy    3.30007647 # occ.  1.00000000
 
ion      s     py     pz     px    dxy    dyz    dz2    dxz  x2-y2    tot
    1  0.000  0.156  0.000  0.052  0.000  0.000  0.000  0.000  0.000  0.208
    2  0.000  0.156  0.000  0.052  0.000  0.000  0.000  0.000  0.000  0.208
    3  0.000  0.153  0.000  0.051  0.000  0.000  0.000  0.000  0.000  0.205
    4  0.000  0.153  0.000  0.051  0.000  0.000  0.000  0.000  0.000  0.205
tot    0.000  0.619  0.000  0.206  0.000  0.000  0.000  0.000  0.000  0.825
 
band     8 # energy    3.47946467 # occ.  1.00000000
 
ion      s     py     pz     px    dxy    dyz    dz2    dxz  x2-y2    tot
    1  0.000  0.157  0.000  0.052  0.000  0.000  0.000  0.000  0.000  0.209
    2  0.000  0.157  0.000  0.052  0.000  0.000  0.000  0.000  0.000  0.209
    3  0.000  0.157  0.000  0.052  0.000  0.000  0.000  0.000  0.000  0.210
    4  0.000  0.157  0.000  0.052  0.000  0.000  0.000  0.000  0.000  0.210
tot    0.000  0.629  0.000  0.209  0.000  0.000  0.000  0.000  0.000  0.838
 
band     9 # energy   13.88162199 # occ.  0.00000000
 
ion      s     py     pz     px    dxy    dyz    dz2    dxz  x2-y2    tot
    1  0.025  0.002  0.000  0.005  0.000  0.000  0.000  0.000  0.000  0.032
    2  0.025  0.002  0.000  0.005  0.000  0.000  0.000  0.000  0.000  0.032
    3  0.028  0.002  0.000  0.006  0.000  0.000  0.000  0.000  0.000  0.036
    4  0.028  0.002  0.000  0.006  0.000  0.000  0.000  0.000  0.000  0.036
tot    0.106  0.007  0.000  0.022  0.000  0.000  0.000  0.000  0.000  0.135
 
band    10 # energy   15.52927982 # occ.  0.00000000
 
ion      s     py     pz     px    dxy    dyz    dz2    dxz  x2-y2    tot
    1  0.014  0.029  0.000  0.087  0.000  0.000  0.000  0.000  0.000  0.130
    2  0.014  0.029  0.000  0.087  0.000  0.000  0.000  0.000  0.000  0.130
    3  0.013  0.026  0.000  0.077  0.000  0.000  0.000  0.000  0.000  0.116
    4  0.013  0.026  0.000  0.077  0.000  0.000  0.000  0.000  0.000  0.116
tot    0.055  0.109  0.000  0.327  0.000  0.000  0.000  0.000  0.000  0.491
 
band    11 # energy   15.96127042 # occ.  0.00000000
 
ion      s     py     pz     px    dxy    dyz    dz2    dxz  x2-y2    tot
    1  0.017  0.026  0.000  0.077  0.000  0.000  0.000  0.000  0.000  0.120
    2  0.017  0.026  0.000  0.077  0.000  0.000  0.000  0.000  0.000  0.120
    3  0.015  0.030  0.000  0.090  0.000  0.000  0.000  0.000  0.000  0.135
    4  0.015  0.030  0.000  0.090  0.000  0.000  0.000  0.000  0.000  0.135
tot    0.063  0.112  0.000  0.334  0.000  0.000  0.000  0.000  0.000  0.509
 
band    12 # energy   16.78273800 # occ.  0.00000000
 
ion      s     py     pz     px    dxy    dyz    dz2    dxz  x2-y2    tot
    1  0.000  0.104  0.000  0.035  0.000  0.000  0.000  0.000  0.000  0.139
    2  0.000  0.104  0.000  0.035  0.000  0.000  0.000  0.000  0.000  0.139
    3  0.000  0.097  0.000  0.032  0.000  0.000  0.000  0.000  0.000  0.130
    4  0.000  0.097  0.000  0.032  0.000  0.000  0.000  0.000  0.000  0.130
tot    0.000  0.403  0.000  0.134  0.000  0.000  0.000  0.000  0.000  0.537
 
band    13 # energy   17.02712586 # occ.  0.00000000
 
ion      s     py     pz     px    dxy    dyz    dz2    dxz  x2-y2    tot
    1  0.000  0.099  0.000  0.033  0.000  0.000  0.000  0.000  0.000  0.132
    2  0.000  0.099  0.000  0.033  0.000  0.000  0.000  0.000  0.000  0.132
    3  0.000  0.108  0.000  0.036  0.000  0.000  0.000  0.000  0.000  0.144
    4  0.000  0.108  0.000  0.036  0.000  0.000  0.000  0.000  0.000  0.144
tot    0.000  0.413  0.000  0.138  0.000  0.000  0.000  0.000  0.000  0.551
 
band    14 # energy   17.37197195 # occ.  0.00000000
 
ion      s     py     pz     px    dxy    dyz    dz2    dxz  x2-y2    tot
    1  0.000  0.000  0.185  0.000  0.000  0.000  0.000  0.000  0.000  0.185
    2  0.000  0.000  0.185  0.000  0.000  0.000  0.000  0.000  0.000  0.185
    3  0.000  0.000  0.163  0.000  0.000  0.000  0.000  0.000  0.000  0.163
    4  0.000  0.000  0.163  0.000  0.000  0.000  0.000  0.000  0.000  0.163
tot    0.000  0.000  0.698  0.000  0.000  0.000  0.000  0.000  0.000  0.698
 
band    15 # energy   18.38957089 # occ.  0.00000000
 
ion      s     py     pz     px    dxy    dyz    dz2    dxz  x2-y2    tot
    1  0.000  0.000  0.190  0.000  0.000  0.000  0.000  0.000  0.000  0.190
    2  0.000  0.000  0.190  0.000  0.000  0.000  0.000  0.000  0.000  0.190
    3  0.000  0.000  0.190  0.000  0.000  0.000  0.000  0.000  0.000  0.190
    4  0.000  0.000  0.190  0.000  0.000  0.000  0.000  0.000  0.000  0.190
tot    0.000  0.000  0.760  0.000  0.000  0.000  0.000  0.000  0.000  0.760
 
band    16 # energy   20.64568372 # occ.  0.00000000
 
ion      s     py     pz     px    dxy    dyz    dz2    dxz  x2-y2    tot
    1  0.148  0.008  0.000  0.024  0.000  0.000  0.000  0.000  0.000  0.179
    2  0.148  0.008  0.000  0.024  0.000  0.000  0.000  0.000  0.000  0.179
    3  0.145  0.004  0.000  0.011  0.000  0.000  0.000  0.000  0.000  0.160
    4  0.145  0.004  0.000  0.011  0.000  0.000  0.000  0.000  0.000  0.160
tot    0.586  0.023  0.000  0.070  0.000  0.000  0.000  0.000  0.000  0.679
 

 k-point     4 :    0.16666667 0.00000000 0.00000000     weight = 0.00462963

band     1 # energy  -12.82664764 # occ.  1.00000000
 
ion      s     py     pz     px    dxy    dyz    dz2    dxz  x2-y2    tot
    1  0.153  0.002  0.000  0.005  0.000  0.000  0.000  0.000  0.000  0.160
    2  0.153  0.002  0.000  0.005  0.000  0.000  0.000  0.000  0.000  0.160
    3  0.151  0.002  0.000  0.005  0.000  0.000  0.000  0.000  0.000  0.158
    4  0.151  0.002  0.000  0.005  0.000  0.000  0.000  0.000  0.000  0.158
tot    0.608  0.007  0.000  0.021  0.000  0.000  0.000  0.000  0.000  0.636
 
band     2 # energy  -11.72485594 # occ.  1.00000000
 
ion      s     py     pz     px    dxy    dyz    dz2    dxz  x2-y2    tot
    1  0.167  0.002  0.000  0.006  0.000  0.000  0.000  0.000  0.000  0.175
    2  0.167  0.002  0.000  0.006  0.000  0.000  0.000  0.000  0.000  0.175
    3  0.167  0.002  0.000  0.006  0.000  0.000  0.000  0.000  0.000  0.174
    4  0.167  0.002  0.000  0.006  0.000  0.000  0.000  0.000  0.000  0.174
tot    0.666  0.008  0.000  0.023  0.000  0.000  0.000  0.000  0.000  0.698
 
band     3 # energy   -2.17568713 # occ.  1.00000000
 
ion      s     py     pz     px    dxy    dyz    dz2    dxz  x2-y2    tot
    1  0.000  0.000  0.098  0.000  0.000  0.000  0.000  0.000  0.000  0.098
    2  0.000  0.000  0.098  0.000  0.000  0.000  0.000  0.000  0.000  0.098
    3  0.000  0.000  0.094  0.000  0.000  0.000  0.000  0.000  0.000  0.094
    4  0.000  0.000  0.094  0.000  0.000  0.000  0.000  0.000  0.000  0.094
tot    0.000  0.000  0.383  0.000  0.000  0.000  0.000  0.000  0.000  0.383
 
band     4 # energy    1.48526193 # occ.  1.00000000
 
ion      s     py     pz     px    dxy    dyz    dz2    dxz  x2-y2    tot
    1  0.028  0.043  0.000  0.129  0.000  0.000  0.000  0.000  0.000  0.200
    2  0.028  0.043  0.000  0.129  0.000  0.000  0.000  0.000  0.000  0.200
    3  0.028  0.042  0.000  0.126  0.000  0.000  0.000  0.000  0.000  0.197
    4  0.028  0.042  0.000  0.126  0.000  0.000  0.000  0.000  0.000  0.197
tot    0.114  0.170  0.000  0.510  0.000  0.000  0.000  0.000  0.000  0.793
 
band     5 # energy    1.79816266 # occ.  1.00000000
 
ion      s     py     pz     px    dxy    dyz    dz2    dxz  x2-y2    tot
    1  0.029  0.044  0.000  0.132  0.000  0.000  0.000  0.000  0.000  0.204
    2  0.029  0.044  0.000  0.132  0.000  0.000  0.000  0.000  0.000  0.204
    3  0.029  0.044  0.000  0.132  0.000  0.000  0.000  0.000  0.000  0.204
    4  0.029  0.044  0.000  0.132  0.000  0.000  0.000  0.000  0.000  0.204
tot    0.114  0.176  0.000  0.527  0.000  0.000  0.000  0.000  0.000  0.816
 
band     6 # energy    2.41720370 # occ.  1.00000000
 
ion      s     py     pz     px    dxy    dyz    dz2    dxz  x2-y2    tot
    1  0.000  0.000  0.144  0.000  0.000  0.000  0.000  0.000  0.000  0.144
    2  0.000  0.000  0.144  0.000  0.000  0.000  0.000  0.000  0.000  0.144
    3  0.000  0.000  0.147  0.000  0.000  0.000  0.000  0.000  0.000  0.147
    4  0.000  0.000  0.147  0.000  0.000  0.000  0.000  0.000  0.000  0.147
tot    0.000  0.000  0.583  0.000  0.000  0.000  0.000  0.000  0.000  0.583
 
band     7 # energy    2.69335699 # occ.  1.00000000
 
ion      s     py     pz     px    dxy    dyz    dz2    dxz  x2-y2    tot
    1  0.000  0.154  0.000  0.051  0.000  0.000  0.000  0.000  0.000  0.205
    2  0.000  0.154  0.000  0.051  0.000  0.000  0.000  0.000  0.000  0.205
    3  0.000  0.152  0.000  0.051  0.000  0.000  0.000  0.000  0.000  0.202
    4  0.000  0.152  0.000  0.051  0.000  0.000  0.000  0.000  0.000  0.202
tot    0.000  0.611  0.000  0.204  0.000  0.000  0.000  0.000  0.000  0.815
 
band     8 # energy    2.91037488 # occ.  1.00000000
 
ion      s     py     pz     px    dxy    dyz    dz2    dxz  x2-y2    tot
    1  0.000  0.156  0.000  0.052  0.000  0.000  0.000  0.000  0.000  0.208
    2  0.000  0.156  0.000  0.052  0.000  0.000  0.000  0.000  0.000  0.208
    3  0.000  0.155  0.000  0.052  0.000  0.000  0.000  0.000  0.000  0.207
    4  0.000  0.155  0.000  0.052  0.000  0.000  0.000  0.000  0.000  0.207
tot    0.000  0.623  0.000  0.207  0.000  0.000  0.000  0.000  0.000  0.830
 
band     9 # energy   14.25875612 # occ.  0.00000000
 
ion      s     py     pz     px    dxy    dyz    dz2    dxz  x2-y2    tot
    1  0.018  0.004  0.000  0.011  0.000  0.000  0.000  0.000  0.000  0.033
    2  0.018  0.004  0.000  0.011  0.000  0.000  0.000  0.000  0.000  0.033
    3  0.024  0.004  0.000  0.013  0.000  0.000  0.000  0.000  0.000  0.041
    4  0.024  0.004  0.000  0.013  0.000  0.000  0.000  0.000  0.000  0.041
tot    0.083  0.016  0.000  0.049  0.000  0.000  0.000  0.000  0.000  0.148
 
band    10 # energy   15.39018440 # occ.  0.00000000
 
ion      s     py     pz     px    dxy    dyz    dz2    dxz  x2-y2    tot
    1  0.038  0.022  0.000  0.067  0.000  0.000  0.000  0.000  0.000  0.126
    2  0.038  0.022  0.000  0.067  0.000  0.000  0.000  0.000  0.000  0.126
    3  0.027  0.020  0.000  0.059  0.000  0.000  0.000  0.000  0.000  0.106
    4  0.027  0.020  0.000  0.059  0.000  0.000  0.000  0.000  0.000  0.106