unknown system                          
            1
     2.467291    0.000000    0.000000
    -1.233646    2.136737    0.000000
     0.000000    0.000000    7.803073
   C 
   4
Direct configuration=     1
   0.00000000  0.00000000  0.25000000
   0.00000000  0.00000000  0.75000000
   0.33333300  0.66666700  0.25000000
   0.66666700  0.33333300  0.75000000
unknown system                          
            1
     2.461240    0.000000    0.000000
    -1.230620    2.131497    0.000000
    -0.000000    0.000000    7.783693
   C 
   4
Direct configuration=     2
  -0.00000000 -0.00000000  0.25000000
  -0.00000000  0.00000000  0.75000000
   0.33333300  0.66666700  0.25000000
   0.66666700  0.33333300  0.75000000
unknown system                          
            1
     2.443087    0.000000    0.000000
    -1.221544    2.115775    0.000000
    -0.000000    0.000000    7.725553
   C 
   4
Direct configuration=     3
  -0.00000000 -0.00000000  0.25000000
  -0.00000000  0.00000000  0.75000000
   0.33333300  0.66666700  0.25000000
   0.66666700  0.33333300  0.75000000
unknown system                          
            1
     2.406780    0.000000    0.000000
    -1.203391    2.084333    0.000000
    -0.000000    0.000000    7.609274
   C 
   4
Direct configuration=     4
  -0.00000000 -0.00000000  0.25000000
  -0.00000000  0.00000000  0.75000000
   0.33333300  0.66666700  0.25000000
   0.66666700  0.33333300  0.75000000
unknown system                          
            1
     2.392274    0.000000    0.000000
    -1.196138    2.071770    0.000000
    -0.000000    0.000000    7.562815
   C 
   4
Direct configuration=     5
  -0.00000000 -0.00000000  0.25000000
  -0.00000000  0.00000000  0.75000000
   0.33333300  0.66666700  0.25000000
   0.66666700  0.33333300  0.75000000
unknown system                          
            1
     2.393343   -0.000000   -0.000000
    -1.196672    2.072696    0.000000
    -0.000000   -0.000000    7.484593
   C 
   4
Direct configuration=     6
  -0.00000000 -0.00000000  0.25000000
  -0.00000000  0.00000000  0.75000000
   0.33333300  0.66666700  0.25000000
   0.66666700  0.33333300  0.75000000
unknown system                          
            1
     2.396550   -0.000000   -0.000000
    -1.198276    2.075474    0.000000
    -0.000000   -0.000000    7.249928
   C 
   4
Direct configuration=     7
  -0.00000000 -0.00000000  0.25000000
  -0.00000000 -0.00000000  0.75000000
   0.33333300  0.66666700  0.25000000
   0.66666700  0.33333300  0.75000000
unknown system                          
            1
     2.402965   -0.000000   -0.000000
    -1.201483    2.081029    0.000000
    -0.000000   -0.000000    6.780598
   C 
   4
Direct configuration=     8
  -0.00000000 -0.00000000  0.25000000
  -0.00000000 -0.00000000  0.75000000
   0.33333300  0.66666700  0.25000000
   0.66666700  0.33333300  0.75000000
unknown system                          
            1
     2.415794   -0.000000   -0.000000
    -1.207897    2.092139    0.000000
    -0.000000   -0.000000    5.841938
   C 
   4
Direct configuration=     9
  -0.00000000 -0.00000000  0.25000000
  -0.00000000 -0.00000000  0.75000000
   0.33333300  0.66666700  0.25000000
   0.66666700  0.33333300  0.75000000
unknown system                          
            1
     2.441451   -0.000000   -0.000000
    -1.220726    2.114359    0.000000
    -0.000000   -0.000000    3.964618
   C 
   4
Direct configuration=    10
  -0.00000000 -0.00000000  0.25000000
  -0.00000000 -0.00000000  0.75000000
   0.33333300  0.66666700  0.25000000
   0.66666700  0.33333300  0.75000000
unknown system                          
            1
     2.417687   -0.000000   -0.000000
    -1.208844    2.093779    0.000000
    -0.000000   -0.000000    5.703401
   C 
   4
Direct configuration=    11
  -0.00000000 -0.00000000  0.25000000
  -0.00000000 -0.00000000  0.75000000
   0.33333300  0.66666700  0.25000000
   0.66666700  0.33333300  0.75000000
unknown system                          
            1
     2.432270   -0.000000   -0.000000
    -1.216136    2.106408    0.000000
    -0.000000   -0.000000    5.718502
   C 
   4
Direct configuration=    12
  -0.00000000 -0.00000000  0.25000000
  -0.00000000 -0.00000000  0.75000000
   0.33333300  0.66666700  0.25000000
   0.66666700  0.33333300  0.75000000
unknown system                          
            1
     2.423318   -0.000000   -0.000000
    -1.211660    2.098656    0.000000
    -0.000000   -0.000000    5.709232
   C 
   4
Direct configuration=    13
  -0.00000000 -0.00000000  0.25000000
  -0.00000000 -0.00000000  0.75000000
   0.33333300  0.66666700  0.25000000
   0.66666700  0.33333300  0.75000000
unknown system                          
            1
     2.425559   -0.000000    0.000000
    -1.212780    2.100596    0.000000
    -0.000000   -0.000000    5.669621
   C 
   4
Direct configuration=    14
  -0.00000000 -0.00000000  0.25000000
  -0.00000000 -0.00000000  0.75000000
   0.33333300  0.66666700  0.25000000
   0.66666700  0.33333300  0.75000000
unknown system                          
            1
     2.429490   -0.000000    0.000000
    -1.214745    2.104000    0.000000
    -0.000000   -0.000000    5.600124
   C 
   4
Direct configuration=    15
  -0.00000000 -0.00000000  0.25000000
  -0.00000000 -0.00000000  0.75000000
   0.33333300  0.66666700  0.25000000
   0.66666700  0.33333300  0.75000000
unknown system                          
            1
     2.437351   -0.000000    0.000000
    -1.218676    2.110809    0.000000
    -0.000000   -0.000000    5.461130
   C 
   4
Direct configuration=    16
  -0.00000000 -0.00000000  0.25000000
  -0.00000000 -0.00000000  0.75000000
   0.33333300  0.66666700  0.25000000
   0.66666700  0.33333300  0.75000000
unknown system                          
            1
     2.432275   -0.000000    0.000000
    -1.216138    2.106412    0.000000
    -0.000000   -0.000000    5.550884
   C 
   4
Direct configuration=    17
  -0.00000000 -0.00000000  0.25000000
  -0.00000000 -0.00000000  0.75000000
   0.33333300  0.66666700  0.25000000
   0.66666700  0.33333300  0.75000000
unknown system                          
            1
     2.424683   -0.000000    0.000000
    -1.212342    2.099837    0.000000
    -0.000000   -0.000000    5.512303
   C 
   4
Direct configuration=    18
  -0.00000000 -0.00000000  0.25000000
  -0.00000000 -0.00000000  0.75000000
   0.33333300  0.66666700  0.25000000
   0.66666700  0.33333300  0.75000000
unknown system                          
            1
     2.426015   -0.000000    0.000000
    -1.213008    2.100992    0.000000
    -0.000000   -0.000000    5.519076
   C 
   4
Direct configuration=    19
  -0.00000000 -0.00000000  0.25000000
  -0.00000000 -0.00000000  0.75000000
   0.33333300  0.66666700  0.25000000
   0.66666700  0.33333300  0.75000000
