  32   32
1 1
    44.529381176629997     0.000000000000000    -0.000000000000000
     0.000000000000000    44.529371087389997     0.000000000000000
    -0.000000000000000     0.000000000000000    42.855407626190001
1 2
    -6.342323872450000     0.000000000000000    -0.000000000000000
     0.000000000000000     2.207448721490000    -1.324248662890000
    -0.000000000000000    -1.324248662890000     1.264132286680000
1 3
     0.070005993390000     3.702159898580000     1.146833100900000
     3.702159898580000    -4.204879582919999     0.662124391500000
     1.146833100900000     0.662124391500000     1.264132286680000
1 4
     0.070005993390000    -3.702159898580000    -1.146833100900000
    -3.702159898580000    -4.204879582919999     0.662124391500000
    -1.146833100900000     0.662124391500000     1.264132286680000
1 5
    -0.108841520020000    -0.000000000000000     0.000000000000000
    -0.000000000000000    -0.108841520020000     0.000000000000000
     0.000000000000000     0.000000000000000     0.015035610020000
1 6
     0.127384342040000    -0.000000000000000    -0.000000000000000
    -0.000000000000000    -0.072955054220000    -0.082040294730000
    -0.000000000000000    -0.082040294730000    -0.067531126840000
1 7
    -0.022870265210000    -0.086749567610000     0.071048908520000
    -0.086749567610000     0.077299432920000     0.041020087310000
     0.071048908520000     0.041020087310000    -0.067531126840000
1 8
    -0.022870265210000     0.086749567610000    -0.071048908520000
     0.086749567610000     0.077299432920000     0.041020087310000
    -0.071048908520000     0.041020087310000    -0.067531126840000
1 9
     0.112928983430000    -0.108210702300000     2.327048374100000
    -0.108210702300000    -0.012022050120000    -1.343521873820000
     0.998883164330000    -0.576705402470000    -1.799272542660000
1 10
     0.112928983430000     0.108210702300000    -2.327048374100000
     0.108210702300000    -0.012022050120000    -1.343521873820000
    -0.998883164330000    -0.576705402470000    -1.799272542660000
1 11
    -0.074497506840000     0.000000000000000     0.000000000000000
     0.000000000000000     0.175404440150000     2.687043627530000
     0.000000000000000     1.153410804940000    -1.799272542660000
1 12
     0.009565680510000     0.000000000000000     0.000000000000000
    -0.000000000000000     0.009565680510000     0.000000000000000
     0.000000000000000     0.000000000000000    -0.146999626250000
1 13
     0.112928983430000    -0.108210702300000    -0.998883164330000
    -0.108210702300000    -0.012022050120000     0.576705402470000
    -2.327048374100000     1.343521873820000    -1.799272542660000
1 14
     0.112928983430000     0.108210702300000     0.998883164330000
     0.108210702300000    -0.012022050120000     0.576705402470000
     2.327048374100000     1.343521873820000    -1.799272542660000
1 15
    -0.074497506840000     0.000000000000000    -0.000000000000000
     0.000000000000000     0.175404440150000    -1.153410804940000
    -0.000000000000000    -2.687043627530000    -1.799272542660000
1 16
     0.009565680510000     0.000000000000000    -0.000000000000000
     0.000000000000000     0.009565680510000    -0.000000000000000
    -0.000000000000000    -0.000000000000000    -0.146999626250000
1 17
    -0.332430488870000     0.244971911930000    -0.015416238610000
     0.244971911930000    -0.049561229520000     0.008900511330000
    -0.015416238610000     0.008900511330000     0.170275623040000
1 18
    -0.332430488870000    -0.244971911930000     0.015416238610000
    -0.244971911930000    -0.049561229520000     0.008900511330000
     0.015416238610000     0.008900511330000     0.170275623040000
1 19
     0.091873340100000    -0.000000000000000    -0.000000000000000
    -0.000000000000000    -0.473865058490000    -0.017801142770000
    -0.000000000000000    -0.017801142770000     0.170275623040000
1 20
    -0.011564310910000    -0.000000000000000     0.000000000000000
    -0.000000000000000    -0.011564310910000     0.000000000000000
     0.000000000000000     0.000000000000000    -0.108251779920000
1 21
   -12.544723078090000     3.021702877560000    -2.088386801350000
     3.021702877560000    -9.055558686580000     1.205730600830000
    -2.088386801350000     1.205730600830000    -7.699634013940000
1 22
   -12.544723078090000    -3.021702877560000     2.088386801350000
    -3.021702877560000    -9.055558686580000     1.205730600830000
     2.088386801350000     1.205730600830000    -7.699634013940000
1 23
    -7.310979673739999    -0.000000000000000    -0.000000000000000
    -0.000000000000000   -14.289301009939999    -2.411461081550000
    -0.000000000000000    -2.411461081550000    -7.699634013940000
1 24
     0.636643055000000     0.000000000000000     0.000000000000000
     0.000000000000000     0.636642934890000     0.000000000000000
     0.000000000000000     0.000000000000000     0.011730302930000
1 25
    -6.822350934270000    -0.000000000000000    -0.000000000000000
    -0.000000000000000    -6.822349372839999    -0.000000000000000
    -0.000000000000000    -0.000000000000000   -11.331829236970000
1 26
     0.281062684840000     0.000000000000000     0.000000000000000
     0.000000000000000     0.123103621640000     0.041113292670000
    -0.000000000000000    -0.041113292670000     0.078755646560000
1 27
     0.162593387440000    -0.068398200930000    -0.035605168180000
    -0.068398200930000     0.241572798930000    -0.020556706390000
     0.035605168180000     0.020556706390000     0.078755646560000
1 28
     0.162593387440000     0.068398200930000     0.035605168180000
     0.068398200930000     0.241572798930000    -0.020556706390000
    -0.035605168180000     0.020556706390000     0.078755646560000
1 29
     0.239162191230000     0.000000000000000    -0.000000000000000
     0.000000000000000     0.239162191230000    -0.000000000000000
     0.000000000000000     0.000000000000000    -0.064772080030000
1 30
    -0.144975172200000    -0.000000000000000    -0.000000000000000
    -0.000000000000000    -0.052658145760000    -0.185625080490000
     0.000000000000000     0.185625080490000    -0.508560513530000
1 31
    -0.075737402370000     0.039974409650000     0.160756064770000
     0.039974409650000    -0.121895915590000     0.092812600300000
    -0.160756064770000    -0.092812600300000    -0.508560513530000
1 32
    -0.075737402370000    -0.039974409650000    -0.160756064770000
    -0.039974409650000    -0.121895915590000     0.092812600300000
     0.160756064770000    -0.092812600300000    -0.508560513530000
2 1
    -6.342323872450000     0.000000000000000    -0.000000000000000
     0.000000000000000     2.207448721490000    -1.324248662890000
    -0.000000000000000    -1.324248662890000     1.264132286680000
2 2
    44.529381176629997     0.000000000000000    -0.000000000000000
     0.000000000000000    44.529371087389997     0.000000000000000
    -0.000000000000000     0.000000000000000    42.855407626190001
2 3
     0.070005993390000    -3.702159898580000    -1.146833100900000
    -3.702159898580000    -4.204879582919999     0.662124391500000
    -1.146833100900000     0.662124391500000     1.264132286680000
2 4
     0.070005993390000     3.702159898580000     1.146833100900000
     3.702159898580000    -4.204879582919999     0.662124391500000
     1.146833100900000     0.662124391500000     1.264132286680000
2 5
     0.127384342040000    -0.000000000000000    -0.000000000000000
    -0.000000000000000    -0.072955054220000    -0.082040294730000
    -0.000000000000000    -0.082040294730000    -0.067531126840000
2 6
    -0.108841520020000    -0.000000000000000     0.000000000000000
    -0.000000000000000    -0.108841520020000     0.000000000000000
     0.000000000000000     0.000000000000000     0.015035610020000
2 7
    -0.022870265210000     0.086749567610000    -0.071048908520000
     0.086749567610000     0.077299432920000     0.041020087310000
    -0.071048908520000     0.041020087310000    -0.067531126840000
2 8
    -0.022870265210000    -0.086749567610000     0.071048908520000
    -0.086749567610000     0.077299432920000     0.041020087310000
     0.071048908520000     0.041020087310000    -0.067531126840000
2 9
     0.112928983430000     0.108210702300000    -2.327048374100000
     0.108210702300000    -0.012022050120000    -1.343521873820000
    -0.998883164330000    -0.576705402470000    -1.799272542660000
2 10
     0.112928983430000    -0.108210702300000     2.327048374100000
    -0.108210702300000    -0.012022050120000    -1.343521873820000
     0.998883164330000    -0.576705402470000    -1.799272542660000
2 11
     0.009565680510000     0.000000000000000     0.000000000000000
    -0.000000000000000     0.009565680510000     0.000000000000000
     0.000000000000000     0.000000000000000    -0.146999626250000
2 12
    -0.074497506840000     0.000000000000000     0.000000000000000
     0.000000000000000     0.175404440150000     2.687043627530000
     0.000000000000000     1.153410804940000    -1.799272542660000
2 13
     0.112928983430000     0.108210702300000     0.998883164330000
     0.108210702300000    -0.012022050120000     0.576705402470000
     2.327048374100000     1.343521873820000    -1.799272542660000
2 14
     0.112928983430000    -0.108210702300000    -0.998883164330000
    -0.108210702300000    -0.012022050120000     0.576705402470000
    -2.327048374100000     1.343521873820000    -1.799272542660000
2 15
     0.009565680510000     0.000000000000000    -0.000000000000000
     0.000000000000000     0.009565680510000    -0.000000000000000
    -0.000000000000000    -0.000000000000000    -0.146999626250000
2 16
    -0.074497506840000     0.000000000000000    -0.000000000000000
     0.000000000000000     0.175404440150000    -1.153410804940000
    -0.000000000000000    -2.687043627530000    -1.799272542660000
2 17
    -0.332430488870000    -0.244971911930000     0.015416238610000
    -0.244971911930000    -0.049561229520000     0.008900511330000
     0.015416238610000     0.008900511330000     0.170275623040000
2 18
    -0.332430488870000     0.244971911930000    -0.015416238610000
     0.244971911930000    -0.049561229520000     0.008900511330000
    -0.015416238610000     0.008900511330000     0.170275623040000
2 19
    -0.011564310910000    -0.000000000000000     0.000000000000000
    -0.000000000000000    -0.011564310910000     0.000000000000000
     0.000000000000000     0.000000000000000    -0.108251779920000
2 20
     0.091873340100000    -0.000000000000000    -0.000000000000000
    -0.000000000000000    -0.473865058490000    -0.017801142770000
    -0.000000000000000    -0.017801142770000     0.170275623040000
2 21
   -12.544723078090000    -3.021702877560000     2.088386801350000
    -3.021702877560000    -9.055558686580000     1.205730600830000
     2.088386801350000     1.205730600830000    -7.699634013940000
2 22
   -12.544723078090000     3.021702877560000    -2.088386801350000
     3.021702877560000    -9.055558686580000     1.205730600830000
    -2.088386801350000     1.205730600830000    -7.699634013940000
2 23
     0.636643055000000     0.000000000000000     0.000000000000000
     0.000000000000000     0.636642934890000     0.000000000000000
     0.000000000000000     0.000000000000000     0.011730302930000
2 24
    -7.310979673739999    -0.000000000000000    -0.000000000000000
    -0.000000000000000   -14.289301009939999    -2.411461081550000
    -0.000000000000000    -2.411461081550000    -7.699634013940000
2 25
     0.281062684840000     0.000000000000000     0.000000000000000
     0.000000000000000     0.123103621640000     0.041113292670000
    -0.000000000000000    -0.041113292670000     0.078755646560000
2 26
    -6.822350934270000    -0.000000000000000    -0.000000000000000
    -0.000000000000000    -6.822349372839999    -0.000000000000000
    -0.000000000000000    -0.000000000000000   -11.331829236970000
2 27
     0.162593387440000     0.068398200930000     0.035605168180000
     0.068398200930000     0.241572798930000    -0.020556706390000
    -0.035605168180000     0.020556706390000     0.078755646560000
2 28
     0.162593387440000    -0.068398200930000    -0.035605168180000
    -0.068398200930000     0.241572798930000    -0.020556706390000
     0.035605168180000     0.020556706390000     0.078755646560000
2 29
    -0.144975172200000    -0.000000000000000    -0.000000000000000
    -0.000000000000000    -0.052658145760000    -0.185625080490000
     0.000000000000000     0.185625080490000    -0.508560513530000
2 30
     0.239162191230000     0.000000000000000    -0.000000000000000
     0.000000000000000     0.239162191230000    -0.000000000000000
     0.000000000000000     0.000000000000000    -0.064772080030000
2 31
    -0.075737402370000    -0.039974409650000    -0.160756064770000
    -0.039974409650000    -0.121895915590000     0.092812600300000
     0.160756064770000    -0.092812600300000    -0.508560513530000
2 32
    -0.075737402370000     0.039974409650000     0.160756064770000
     0.039974409650000    -0.121895915590000     0.092812600300000
    -0.160756064770000    -0.092812600300000    -0.508560513530000
3 1
     0.070005993390000     3.702159898580000     1.146833100900000
     3.702159898580000    -4.204879582919999     0.662124391500000
     1.146833100900000     0.662124391500000     1.264132286680000
3 2
     0.070005993390000    -3.702159898580000    -1.146833100900000
    -3.702159898580000    -4.204879582919999     0.662124391500000
    -1.146833100900000     0.662124391500000     1.264132286680000
3 3
    44.529381176629997     0.000000000000000    -0.000000000000000
     0.000000000000000    44.529371087389997     0.000000000000000
    -0.000000000000000     0.000000000000000    42.855407626190001
3 4
    -6.342323872450000     0.000000000000000    -0.000000000000000
     0.000000000000000     2.207448721490000    -1.324248662890000
    -0.000000000000000    -1.324248662890000     1.264132286680000
3 5
    -0.022870265210000    -0.086749567610000     0.071048908520000
    -0.086749567610000     0.077299432920000     0.041020087310000
     0.071048908520000     0.041020087310000    -0.067531126840000
3 6
    -0.022870265210000     0.086749567610000    -0.071048908520000
     0.086749567610000     0.077299432920000     0.041020087310000
    -0.071048908520000     0.041020087310000    -0.067531126840000
3 7
    -0.108841520020000    -0.000000000000000     0.000000000000000
    -0.000000000000000    -0.108841520020000     0.000000000000000
     0.000000000000000     0.000000000000000     0.015035610020000
3 8
     0.127384342040000    -0.000000000000000    -0.000000000000000
    -0.000000000000000    -0.072955054220000    -0.082040294730000
    -0.000000000000000    -0.082040294730000    -0.067531126840000
3 9
    -0.074497506840000     0.000000000000000     0.000000000000000
     0.000000000000000     0.175404440150000     2.687043627530000
     0.000000000000000     1.153410804940000    -1.799272542660000
3 10
     0.009565680510000     0.000000000000000     0.000000000000000
    -0.000000000000000     0.009565680510000     0.000000000000000
     0.000000000000000     0.000000000000000    -0.146999626250000
3 11
     0.112928983430000    -0.108210702300000     2.327048374100000
    -0.108210702300000    -0.012022050120000    -1.343521873820000
     0.998883164330000    -0.576705402470000    -1.799272542660000
3 12
     0.112928983430000     0.108210702300000    -2.327048374100000
     0.108210702300000    -0.012022050120000    -1.343521873820000
    -0.998883164330000    -0.576705402470000    -1.799272542660000
3 13
    -0.074497506840000     0.000000000000000    -0.000000000000000
     0.000000000000000     0.175404440150000    -1.153410804940000
    -0.000000000000000    -2.687043627530000    -1.799272542660000
3 14
     0.009565680510000     0.000000000000000    -0.000000000000000
     0.000000000000000     0.009565680510000    -0.000000000000000
    -0.000000000000000    -0.000000000000000    -0.146999626250000
3 15
     0.112928983430000    -0.108210702300000    -0.998883164330000
    -0.108210702300000    -0.012022050120000     0.576705402470000
    -2.327048374100000     1.343521873820000    -1.799272542660000
3 16
     0.112928983430000     0.108210702300000     0.998883164330000
     0.108210702300000    -0.012022050120000     0.576705402470000
     2.327048374100000     1.343521873820000    -1.799272542660000
3 17
     0.091873340100000    -0.000000000000000    -0.000000000000000
    -0.000000000000000    -0.473865058490000    -0.017801142770000
    -0.000000000000000    -0.017801142770000     0.170275623040000
3 18
    -0.011564310910000    -0.000000000000000     0.000000000000000
    -0.000000000000000    -0.011564310910000     0.000000000000000
     0.000000000000000     0.000000000000000    -0.108251779920000
3 19
    -0.332430488870000     0.244971911930000    -0.015416238610000
     0.244971911930000    -0.049561229520000     0.008900511330000
    -0.015416238610000     0.008900511330000     0.170275623040000
3 20
    -0.332430488870000    -0.244971911930000     0.015416238610000
    -0.244971911930000    -0.049561229520000     0.008900511330000
     0.015416238610000     0.008900511330000     0.170275623040000
3 21
    -7.310979673739999    -0.000000000000000    -0.000000000000000
    -0.000000000000000   -14.289301009939999    -2.411461081550000
    -0.000000000000000    -2.411461081550000    -7.699634013940000
3 22
     0.636643055000000     0.000000000000000     0.000000000000000
     0.000000000000000     0.636642934890000     0.000000000000000
     0.000000000000000     0.000000000000000     0.011730302930000
3 23
   -12.544723078090000     3.021702877560000    -2.088386801350000
     3.021702877560000    -9.055558686580000     1.205730600830000
    -2.088386801350000     1.205730600830000    -7.699634013940000
3 24
   -12.544723078090000    -3.021702877560000     2.088386801350000
    -3.021702877560000    -9.055558686580000     1.205730600830000
     2.088386801350000     1.205730600830000    -7.699634013940000
3 25
     0.162593387440000    -0.068398200930000    -0.035605168180000
    -0.068398200930000     0.241572798930000    -0.020556706390000
     0.035605168180000     0.020556706390000     0.078755646560000
3 26
     0.162593387440000     0.068398200930000     0.035605168180000
     0.068398200930000     0.241572798930000    -0.020556706390000
    -0.035605168180000     0.020556706390000     0.078755646560000
3 27
    -6.822350934270000    -0.000000000000000    -0.000000000000000
    -0.000000000000000    -6.822349372839999    -0.000000000000000
    -0.000000000000000    -0.000000000000000   -11.331829236970000
3 28
     0.281062684840000     0.000000000000000     0.000000000000000
     0.000000000000000     0.123103621640000     0.041113292670000
    -0.000000000000000    -0.041113292670000     0.078755646560000
3 29
    -0.075737402370000     0.039974409650000     0.160756064770000
     0.039974409650000    -0.121895915590000     0.092812600300000
    -0.160756064770000    -0.092812600300000    -0.508560513530000
3 30
    -0.075737402370000    -0.039974409650000    -0.160756064770000
    -0.039974409650000    -0.121895915590000     0.092812600300000
     0.160756064770000    -0.092812600300000    -0.508560513530000
3 31
     0.239162191230000     0.000000000000000    -0.000000000000000
     0.000000000000000     0.239162191230000    -0.000000000000000
     0.000000000000000     0.000000000000000    -0.064772080030000
3 32
    -0.144975172200000    -0.000000000000000    -0.000000000000000
    -0.000000000000000    -0.052658145760000    -0.185625080490000
     0.000000000000000     0.185625080490000    -0.508560513530000
4 1
     0.070005993390000    -3.702159898580000    -1.146833100900000
    -3.702159898580000    -4.204879582919999     0.662124391500000
    -1.146833100900000     0.662124391500000     1.264132286680000
4 2
     0.070005993390000     3.702159898580000     1.146833100900000
     3.702159898580000    -4.204879582919999     0.662124391500000
     1.146833100900000     0.662124391500000     1.264132286680000
4 3
    -6.342323872450000     0.000000000000000    -0.000000000000000
     0.000000000000000     2.207448721490000    -1.324248662890000
    -0.000000000000000    -1.324248662890000     1.264132286680000
4 4
    44.529381176629997     0.000000000000000    -0.000000000000000
     0.000000000000000    44.529371087389997     0.000000000000000
    -0.000000000000000     0.000000000000000    42.855407626190001
4 5
    -0.022870265210000     0.086749567610000    -0.071048908520000
     0.086749567610000     0.077299432920000     0.041020087310000
    -0.071048908520000     0.041020087310000    -0.067531126840000
4 6
    -0.022870265210000    -0.086749567610000     0.071048908520000
    -0.086749567610000     0.077299432920000     0.041020087310000
     0.071048908520000     0.041020087310000    -0.067531126840000
4 7
     0.127384342040000    -0.000000000000000    -0.000000000000000
    -0.000000000000000    -0.072955054220000    -0.082040294730000
    -0.000000000000000    -0.082040294730000    -0.067531126840000
4 8
    -0.108841520020000    -0.000000000000000     0.000000000000000
    -0.000000000000000    -0.108841520020000     0.000000000000000
     0.000000000000000     0.000000000000000     0.015035610020000
4 9
     0.009565680510000     0.000000000000000     0.000000000000000
    -0.000000000000000     0.009565680510000     0.000000000000000
     0.000000000000000     0.000000000000000    -0.146999626250000
4 10
    -0.074497506840000     0.000000000000000     0.000000000000000
     0.000000000000000     0.175404440150000     2.687043627530000
     0.000000000000000     1.153410804940000    -1.799272542660000
4 11
     0.112928983430000     0.108210702300000    -2.327048374100000
     0.108210702300000    -0.012022050120000    -1.343521873820000
    -0.998883164330000    -0.576705402470000    -1.799272542660000
4 12
     0.112928983430000    -0.108210702300000     2.327048374100000
    -0.108210702300000    -0.012022050120000    -1.343521873820000
     0.998883164330000    -0.576705402470000    -1.799272542660000
4 13
     0.009565680510000     0.000000000000000    -0.000000000000000
     0.000000000000000     0.009565680510000    -0.000000000000000
    -0.000000000000000    -0.000000000000000    -0.146999626250000
4 14
    -0.074497506840000     0.000000000000000    -0.000000000000000
     0.000000000000000     0.175404440150000    -1.153410804940000
    -0.000000000000000    -2.687043627530000    -1.799272542660000
4 15
     0.112928983430000     0.108210702300000     0.998883164330000
     0.108210702300000    -0.012022050120000     0.576705402470000
     2.327048374100000     1.343521873820000    -1.799272542660000
4 16
     0.112928983430000    -0.108210702300000    -0.998883164330000
    -0.108210702300000    -0.012022050120000     0.576705402470000
    -2.327048374100000     1.343521873820000    -1.799272542660000
4 17
    -0.011564310910000    -0.000000000000000     0.000000000000000
    -0.000000000000000    -0.011564310910000     0.000000000000000
     0.000000000000000     0.000000000000000    -0.108251779920000
4 18
     0.091873340100000    -0.000000000000000    -0.000000000000000
    -0.000000000000000    -0.473865058490000    -0.017801142770000
    -0.000000000000000    -0.017801142770000     0.170275623040000
4 19
    -0.332430488870000    -0.244971911930000     0.015416238610000
    -0.244971911930000    -0.049561229520000     0.008900511330000
     0.015416238610000     0.008900511330000     0.170275623040000
4 20
    -0.332430488870000     0.244971911930000    -0.015416238610000
     0.244971911930000    -0.049561229520000     0.008900511330000
    -0.015416238610000     0.008900511330000     0.170275623040000
4 21
     0.636643055000000     0.000000000000000     0.000000000000000
     0.000000000000000     0.636642934890000     0.000000000000000
     0.000000000000000     0.000000000000000     0.011730302930000
4 22
    -7.310979673739999    -0.000000000000000    -0.000000000000000
    -0.000000000000000   -14.289301009939999    -2.411461081550000
    -0.000000000000000    -2.411461081550000    -7.699634013940000
4 23
   -12.544723078090000    -3.021702877560000     2.088386801350000
    -3.021702877560000    -9.055558686580000     1.205730600830000
     2.088386801350000     1.205730600830000    -7.699634013940000
4 24
   -12.544723078090000     3.021702877560000    -2.088386801350000
     3.021702877560000    -9.055558686580000     1.205730600830000
    -2.088386801350000     1.205730600830000    -7.699634013940000
4 25
     0.162593387440000     0.068398200930000     0.035605168180000
     0.068398200930000     0.241572798930000    -0.020556706390000
    -0.035605168180000     0.020556706390000     0.078755646560000
4 26
     0.162593387440000    -0.068398200930000    -0.035605168180000
    -0.068398200930000     0.241572798930000    -0.020556706390000
     0.035605168180000     0.020556706390000     0.078755646560000
4 27
     0.281062684840000     0.000000000000000     0.000000000000000
     0.000000000000000     0.123103621640000     0.041113292670000
    -0.000000000000000    -0.041113292670000     0.078755646560000
4 28
    -6.822350934270000    -0.000000000000000    -0.000000000000000
    -0.000000000000000    -6.822349372839999    -0.000000000000000
    -0.000000000000000    -0.000000000000000   -11.331829236970000
4 29
    -0.075737402370000    -0.039974409650000    -0.160756064770000
    -0.039974409650000    -0.121895915590000     0.092812600300000
     0.160756064770000    -0.092812600300000    -0.508560513530000
4 30
    -0.075737402370000     0.039974409650000     0.160756064770000
     0.039974409650000    -0.121895915590000     0.092812600300000
    -0.160756064770000    -0.092812600300000    -0.508560513530000
4 31
    -0.144975172200000    -0.000000000000000    -0.000000000000000
    -0.000000000000000    -0.052658145760000    -0.185625080490000
     0.000000000000000     0.185625080490000    -0.508560513530000
4 32
     0.239162191230000     0.000000000000000    -0.000000000000000
     0.000000000000000     0.239162191230000    -0.000000000000000
     0.000000000000000     0.000000000000000    -0.064772080030000
5 1
    -0.108841520020000    -0.000000000000000     0.000000000000000
    -0.000000000000000    -0.108841520020000     0.000000000000000
     0.000000000000000     0.000000000000000     0.015035610020000
5 2
     0.127384342040000    -0.000000000000000    -0.000000000000000
    -0.000000000000000    -0.072955054220000    -0.082040294730000
    -0.000000000000000    -0.082040294730000    -0.067531126840000
5 3
    -0.022870265210000    -0.086749567610000     0.071048908520000
    -0.086749567610000     0.077299432920000     0.041020087310000
     0.071048908520000     0.041020087310000    -0.067531126840000
5 4
    -0.022870265210000     0.086749567610000    -0.071048908520000
     0.086749567610000     0.077299432920000     0.041020087310000
    -0.071048908520000     0.041020087310000    -0.067531126840000
5 5
    44.529381176629997     0.000000000000000    -0.000000000000000
     0.000000000000000    44.529371087389997     0.000000000000000
    -0.000000000000000     0.000000000000000    42.855407626190001
5 6
    -6.342323872450000     0.000000000000000    -0.000000000000000
     0.000000000000000     2.207448721490000    -1.324248662890000
    -0.000000000000000    -1.324248662890000     1.264132286680000
5 7
     0.070005993390000     3.702159898580000     1.146833100900000
     3.702159898580000    -4.204879582919999     0.662124391500000
     1.146833100900000     0.662124391500000     1.264132286680000
5 8
     0.070005993390000    -3.702159898580000    -1.146833100900000
    -3.702159898580000    -4.204879582919999     0.662124391500000
    -1.146833100900000     0.662124391500000     1.264132286680000
5 9
     0.112928983430000    -0.108210702300000    -0.998883164330000
    -0.108210702300000    -0.012022050120000     0.576705402470000
    -2.327048374100000     1.343521873820000    -1.799272542660000
5 10
     0.112928983430000     0.108210702300000     0.998883164330000
     0.108210702300000    -0.012022050120000     0.576705402470000
     2.327048374100000     1.343521873820000    -1.799272542660000
5 11
    -0.074497506840000     0.000000000000000    -0.000000000000000
     0.000000000000000     0.175404440150000    -1.153410804940000
    -0.000000000000000    -2.687043627530000    -1.799272542660000
5 12
     0.009565680510000     0.000000000000000    -0.000000000000000
     0.000000000000000     0.009565680510000    -0.000000000000000
    -0.000000000000000    -0.000000000000000    -0.146999626250000
5 13
     0.112928983430000    -0.108210702300000     2.327048374100000
    -0.108210702300000    -0.012022050120000    -1.343521873820000
     0.998883164330000    -0.576705402470000    -1.799272542660000
5 14
     0.112928983430000     0.108210702300000    -2.327048374100000
     0.108210702300000    -0.012022050120000    -1.343521873820000
    -0.998883164330000    -0.576705402470000    -1.799272542660000
5 15
    -0.074497506840000     0.000000000000000     0.000000000000000
     0.000000000000000     0.175404440150000     2.687043627530000
     0.000000000000000     1.153410804940000    -1.799272542660000
5 16
     0.009565680510000     0.000000000000000     0.000000000000000
    -0.000000000000000     0.009565680510000     0.000000000000000
     0.000000000000000     0.000000000000000    -0.146999626250000
5 17
   -12.544723078090000     3.021702877560000    -2.088386801350000
     3.021702877560000    -9.055558686580000     1.205730600830000
    -2.088386801350000     1.205730600830000    -7.699634013940000
5 18
   -12.544723078090000    -3.021702877560000     2.088386801350000
    -3.021702877560000    -9.055558686580000     1.205730600830000