       N       E                     dE             d eps       ncg     rms          rms(c)
DAV:   1    -0.100124778865E+03   -0.10012E+03   -0.59969E+04  1792   0.924E+02
DAV:   2    -0.669352945161E+03   -0.56923E+03   -0.54129E+03  2240   0.237E+02
DAV:   3    -0.695256145810E+03   -0.25903E+02   -0.25614E+02  2496   0.453E+01
DAV:   4    -0.695772536577E+03   -0.51639E+00   -0.51449E+00  2416   0.645E+00
DAV:   5    -0.695784696089E+03   -0.12160E-01   -0.12149E-01  2432   0.979E-01    0.914E+01
RMM:   6    -0.397727581950E+03    0.29806E+03   -0.17765E+02  1792   0.322E+01    0.488E+01
RMM:   7    -0.288347451909E+03    0.10938E+03   -0.26582E+02  1792   0.383E+01    0.624E+00
RMM:   8    -0.288734046243E+03   -0.38659E+00   -0.16720E+00  1792   0.411E+00    0.218E+00
RMM:   9    -0.288967545824E+03   -0.23350E+00   -0.36373E-01  1792   0.220E+00    0.678E-01
RMM:  10    -0.288987812062E+03   -0.20266E-01   -0.60785E-02  1792   0.790E-01    0.171E-01
RMM:  11    -0.288988597565E+03   -0.78550E-03   -0.17767E-03  1792   0.134E-01    0.139E-01
RMM:  12    -0.288988433603E+03    0.16396E-03   -0.36317E-04  1792   0.601E-02    0.377E-02
RMM:  13    -0.288988405271E+03    0.28332E-04   -0.11880E-04  1792   0.304E-02    0.314E-03
RMM:  14    -0.288988406113E+03   -0.84171E-06   -0.27194E-06  1423   0.522E-03
   1 F= -.26043951E+03 E0= -.26043951E+03  d E =0.000000E+00  mag=    -0.0000
 Linear response reoptimize wavefunctions
DAV:   1    -0.288988407278E+03   -0.28549E+02   -0.64058E-07  1904   0.263E-03
DAV:   2    -0.288988407279E+03   -0.14477E-08   -0.17186E-08  1664   0.327E-04
DAV:   3    -0.288988407279E+03    0.25062E-09   -0.45090E-10  1536   0.664E-05
 Linear response DOF=            2
 Linear response progress:
  Degree of freedom:   1/  2
       N       E                     dE             d eps       ncg     rms          rms(c)
RMM:   1    -0.144002179609E+00   -0.14400E+00    0.22323E-02 10069   0.860E-01
RMM:   2    -0.124444865788E+00    0.19557E-01   -0.58896E-03  5889   0.197E-01    0.182E-01
RMM:   3    -0.124396416611E+00    0.48449E-04   -0.75040E-04  6094   0.543E-02    0.931E-02
RMM:   4    -0.124780712039E+00   -0.38430E-03   -0.18673E-04  5900   0.296E-02    0.288E-02
RMM:   5    -0.124918079500E+00   -0.13737E-03   -0.13945E-05  6179   0.902E-03    0.703E-03
RMM:   6    -0.124888907584E+00    0.29172E-04   -0.20709E-06  6153   0.277E-03    0.914E-04
RMM:   7    -0.124884031520E+00    0.48761E-05    0.10885E-07  6582   0.429E-04    0.326E-04
RMM:   8    -0.124883221291E+00    0.81023E-06    0.66089E-08  6928   0.184E-04    0.129E-04
 Linear response progress:
  Degree of freedom:   2/  2
       N       E                     dE             d eps       ncg     rms          rms(c)
RMM:   1    -0.144267531084E+00   -0.14427E+00    0.25289E-02  5076   0.829E-01
RMM:   2    -0.125572822124E+00    0.18695E-01   -0.55727E-03  2884   0.187E-01    0.181E-01
RMM:   3    -0.125517567512E+00    0.55255E-04   -0.67170E-04  2940   0.538E-02    0.922E-02
RMM:   4    -0.125875504862E+00   -0.35794E-03   -0.18470E-04  2824   0.301E-02    0.277E-02
RMM:   5    -0.125986963323E+00   -0.11146E-03   -0.12202E-05  3020   0.877E-03    0.718E-03
RMM:   6    -0.125957825868E+00    0.29137E-04    0.16037E-07  3023   0.285E-03    0.146E-03
RMM:   7    -0.125950568181E+00    0.72577E-05    0.25451E-06  3142   0.639E-04    0.400E-04
RMM:   8    -0.125948434226E+00    0.21340E-05    0.37764E-06  3301   0.229E-04    0.156E-04
RMM:   9    -0.125948203788E+00    0.23044E-06    0.52260E-06  3483   0.112E-04    0.679E-05
 Linear response finished
