  32   32
1 1
    62.872273976019997    -0.000014653420000     0.000000000000000
    -0.000014653420000    62.872292593070000    -0.000000000000000
     0.000000000000000    -0.000000000000000    14.406285027079997
1 2
    -9.150198880640000    -0.000001080990000     0.000000000000000
    -0.000001080990000     4.436660534210000    -0.000000000000000
     0.000000000000000    -0.000000000000000     0.786366655940000
1 3
     1.039941927060000     5.883284351590000     0.000000000000000
     5.883284351590000    -5.753486038770000     0.000000000000000
     0.000000000000000     0.000000000000000     0.786366655940000
1 4
     1.039947452120000    -5.883281589060000     0.000000000000000
    -5.883281589060000    -5.753486038770000    -0.000000000000000
     0.000000000000000    -0.000000000000000     0.786366655940000
1 5
    -0.008005211390000     0.000000000000000     0.000000000000000
     0.000000000000000    -0.008005211390000    -0.000000000000000
     0.000000000000000    -0.000000000000000     0.000726545390000
1 6
    -0.009975976270000     0.000000000000000     0.000000000000000
     0.000000000000000    -0.001142966760000     0.000000000000000
     0.000000000000000     0.000000000000000    -0.000007206600000
1 7
    -0.003351189110000     0.003824782840000    -0.000000000000000
     0.003824782840000    -0.007767753920000    -0.000000000000000
    -0.000000000000000    -0.000000000000000    -0.000007206600000
1 8
    -0.003351189110000    -0.003824782840000    -0.000000000000000
    -0.003824782840000    -0.007767753920000     0.000000000000000
    -0.000000000000000     0.000000000000000    -0.000007206600000
1 9
     0.009495175940000    -0.000000000000000     0.000000000000000
    -0.000000000000000     0.009495175940000     0.000000000000000
     0.000000000000000     0.000000000000000    -0.006217734370000
1 10
    -0.013579636600000    -0.000000000000000     0.000000000000000
    -0.000000000000000     0.001734508510000    -0.000885450920000
     0.000000000000000    -0.000885450920000     0.003741426500000
1 11
    -0.002093997740000     0.006631273100000     0.000766782240000
     0.006631273100000    -0.009751010240000     0.000442725460000
     0.000766782240000     0.000442725460000     0.003741426500000
1 12
    -0.002093997740000    -0.006631273100000    -0.000766782240000
    -0.006631273100000    -0.009751010240000     0.000442725460000
    -0.000766782240000     0.000442725460000     0.003741426500000
1 13
     0.009495175940000    -0.000000000000000    -0.000000000000000
    -0.000000000000000     0.009495175940000    -0.000000000000000
    -0.000000000000000    -0.000000000000000    -0.006217734370000
1 14
    -0.013579636600000    -0.000000000000000    -0.000000000000000
    -0.000000000000000     0.001734508510000     0.000885450920000
    -0.000000000000000     0.000885450920000     0.003741426500000
1 15
    -0.002093997740000     0.006631273100000    -0.000766782240000
     0.006631273100000    -0.009751010240000    -0.000442725460000
    -0.000766782240000    -0.000442725460000     0.003741426500000
1 16
    -0.002093997740000    -0.006631273100000     0.000766782240000
    -0.006631273100000    -0.009751010240000    -0.000442725460000
     0.000766782240000    -0.000442725460000     0.003741426500000
1 17
    -9.255224626070000     0.000006365830000     0.000000000000000
     0.000006365830000   -26.952505636649995     0.000000000000000
    -0.000000000000000    -0.000000000000000    -5.165650282820000
1 18
    -1.355578755840000     0.000000360330000    -0.000000000000000
     0.000000360330000    -1.355579116170000    -0.000000000000000
    -0.000000000000000     0.000000000000000    -1.259021005630000
1 19
   -22.528183041859997     7.663148439459999    -0.000000000000000
     7.663148439459999   -13.679546860529999    -0.000000000000000
     0.000000000000000     0.000000000000000    -5.165650282820000
1 20
   -22.528175835260001    -7.663141953519999    -0.000000000000000
    -7.663141953519999   -13.679546860529999     0.000000000000000
     0.000000000000000     0.000000000000000    -5.165650282820000
1 21
    -0.009059657080000    -0.000000000000000     0.000000000000000
    -0.000000000000000     0.002421537710000    -0.000000000000000
     0.000000000000000     0.000000000000000    -0.000547341270000
1 22
    -0.003296899390000     0.000000000000000    -0.000000000000000
     0.000000000000000    -0.003296899390000     0.000000000000000
    -0.000000000000000     0.000000000000000    -0.000710210430000
1 23
    -0.000448730960000    -0.004971473010000     0.000000000000000
    -0.004971473010000    -0.006189388410000     0.000000000000000
     0.000000000000000     0.000000000000000    -0.000547341270000
1 24
    -0.000448730960000     0.004971473010000     0.000000000000000
     0.004971473010000    -0.006189388410000    -0.000000000000000
     0.000000000000000     0.000000000000000    -0.000547341270000
1 25
    -0.010575925720000    -0.005975712720000    -0.001236532450000
    -0.005975712720000    -0.003675726330000    -0.000713933840000
    -0.001467503980000    -0.000847255940000    -0.006774924660000
1 26
    -0.010575925720000     0.005975712720000     0.001236532450000
     0.005975712720000    -0.003675726330000    -0.000713933840000
     0.001467503980000    -0.000847255940000    -0.006774924660000
1 27
    -0.021187764330000     0.000000000000000     0.000000000000000
     0.000000000000000    -0.021187764330000     0.000000000000000
     0.000000000000000    -0.000000000000000     0.008172164290000
1 28
    -0.000225686690000     0.000000000000000    -0.000000000000000
     0.000000000000000    -0.014026085470000     0.001427747570000
    -0.000000000000000     0.001694511880000    -0.006774924660000
1 29
    -0.010575925720000    -0.005975712720000     0.001236532450000
    -0.005975712720000    -0.003675726330000     0.000713933840000
     0.001467503980000     0.000847255940000    -0.006774924660000
1 30
    -0.010575925720000     0.005975712720000    -0.001236532450000
     0.005975712720000    -0.003675726330000     0.000713933840000
    -0.001467503980000     0.000847255940000    -0.006774924660000
1 31
    -0.021187764330000     0.000000000000000    -0.000000000000000
     0.000000000000000    -0.021187764330000    -0.000000000000000
    -0.000000000000000     0.000000000000000     0.008172164290000
1 32
    -0.000225686690000     0.000000000000000     0.000000000000000
     0.000000000000000    -0.014026085470000    -0.001427747570000
     0.000000000000000    -0.001694511880000    -0.006774924660000
2 1
    -9.150198880640000    -0.000001080990000     0.000000000000000
    -0.000001080990000     4.436660534210000    -0.000000000000000
     0.000000000000000    -0.000000000000000     0.786366655940000
2 2
    62.872273976019997    -0.000014653420000     0.000000000000000
    -0.000014653420000    62.872292593070000    -0.000000000000000
     0.000000000000000    -0.000000000000000    14.406285027079997
2 3
     1.039947452120000    -5.883281589060000     0.000000000000000
    -5.883281589060000    -5.753486038770000    -0.000000000000000
     0.000000000000000    -0.000000000000000     0.786366655940000
2 4
     1.039941927060000     5.883284351590000     0.000000000000000
     5.883284351590000    -5.753486038770000     0.000000000000000
     0.000000000000000     0.000000000000000     0.786366655940000
2 5
    -0.009975976270000     0.000000000000000     0.000000000000000
     0.000000000000000    -0.001142966760000     0.000000000000000
     0.000000000000000     0.000000000000000    -0.000007206600000
2 6
    -0.008005211390000     0.000000000000000     0.000000000000000
     0.000000000000000    -0.008005211390000    -0.000000000000000
     0.000000000000000    -0.000000000000000     0.000726545390000
2 7
    -0.003351189110000    -0.003824782840000    -0.000000000000000
    -0.003824782840000    -0.007767753920000     0.000000000000000
    -0.000000000000000     0.000000000000000    -0.000007206600000
2 8
    -0.003351189110000     0.003824782840000    -0.000000000000000
     0.003824782840000    -0.007767753920000    -0.000000000000000
    -0.000000000000000    -0.000000000000000    -0.000007206600000
2 9
    -0.013579636600000    -0.000000000000000     0.000000000000000
    -0.000000000000000     0.001734508510000    -0.000885450920000
     0.000000000000000    -0.000885450920000     0.003741426500000
2 10
     0.009495175940000    -0.000000000000000     0.000000000000000
    -0.000000000000000     0.009495175940000     0.000000000000000
     0.000000000000000     0.000000000000000    -0.006217734370000
2 11
    -0.002093997740000    -0.006631273100000    -0.000766782240000
    -0.006631273100000    -0.009751010240000     0.000442725460000
    -0.000766782240000     0.000442725460000     0.003741426500000
2 12
    -0.002093997740000     0.006631273100000     0.000766782240000
     0.006631273100000    -0.009751010240000     0.000442725460000
     0.000766782240000     0.000442725460000     0.003741426500000
2 13
    -0.013579636600000    -0.000000000000000    -0.000000000000000
    -0.000000000000000     0.001734508510000     0.000885450920000
    -0.000000000000000     0.000885450920000     0.003741426500000
2 14
     0.009495175940000    -0.000000000000000    -0.000000000000000
    -0.000000000000000     0.009495175940000    -0.000000000000000
    -0.000000000000000    -0.000000000000000    -0.006217734370000
2 15
    -0.002093997740000    -0.006631273100000     0.000766782240000
    -0.006631273100000    -0.009751010240000    -0.000442725460000
     0.000766782240000    -0.000442725460000     0.003741426500000
2 16
    -0.002093997740000     0.006631273100000    -0.000766782240000
     0.006631273100000    -0.009751010240000    -0.000442725460000
    -0.000766782240000    -0.000442725460000     0.003741426500000
2 17
    -1.355578755840000     0.000000360330000    -0.000000000000000
     0.000000360330000    -1.355579116170000    -0.000000000000000
    -0.000000000000000     0.000000000000000    -1.259021005630000
2 18
    -9.255224626070000     0.000006365830000     0.000000000000000
     0.000006365830000   -26.952505636649995     0.000000000000000
    -0.000000000000000    -0.000000000000000    -5.165650282820000
2 19
   -22.528175835260001    -7.663141953519999    -0.000000000000000
    -7.663141953519999   -13.679546860529999     0.000000000000000
     0.000000000000000     0.000000000000000    -5.165650282820000
2 20
   -22.528183041859997     7.663148439459999    -0.000000000000000
     7.663148439459999   -13.679546860529999    -0.000000000000000
     0.000000000000000     0.000000000000000    -5.165650282820000
2 21
    -0.003296899390000     0.000000000000000    -0.000000000000000
     0.000000000000000    -0.003296899390000     0.000000000000000
    -0.000000000000000     0.000000000000000    -0.000710210430000
2 22
    -0.009059657080000    -0.000000000000000     0.000000000000000
    -0.000000000000000     0.002421537710000    -0.000000000000000
     0.000000000000000     0.000000000000000    -0.000547341270000
2 23
    -0.000448730960000     0.004971473010000     0.000000000000000
     0.004971473010000    -0.006189388410000    -0.000000000000000
     0.000000000000000     0.000000000000000    -0.000547341270000
2 24
    -0.000448730960000    -0.004971473010000     0.000000000000000
    -0.004971473010000    -0.006189388410000     0.000000000000000
     0.000000000000000     0.000000000000000    -0.000547341270000
2 25
    -0.010575925720000     0.005975712720000     0.001236532450000
     0.005975712720000    -0.003675726330000    -0.000713933840000
     0.001467503980000    -0.000847255940000    -0.006774924660000
2 26
    -0.010575925720000    -0.005975712720000    -0.001236532450000
    -0.005975712720000    -0.003675726330000    -0.000713933840000
    -0.001467503980000    -0.000847255940000    -0.006774924660000
2 27
    -0.000225686690000     0.000000000000000    -0.000000000000000
     0.000000000000000    -0.014026085470000     0.001427747570000
    -0.000000000000000     0.001694511880000    -0.006774924660000
2 28
    -0.021187764330000     0.000000000000000     0.000000000000000
     0.000000000000000    -0.021187764330000     0.000000000000000
     0.000000000000000    -0.000000000000000     0.008172164290000
2 29
    -0.010575925720000     0.005975712720000    -0.001236532450000
     0.005975712720000    -0.003675726330000     0.000713933840000
    -0.001467503980000     0.000847255940000    -0.006774924660000
2 30
    -0.010575925720000    -0.005975712720000     0.001236532450000
    -0.005975712720000    -0.003675726330000     0.000713933840000
     0.001467503980000     0.000847255940000    -0.006774924660000
2 31
    -0.000225686690000     0.000000000000000     0.000000000000000
     0.000000000000000    -0.014026085470000    -0.001427747570000
     0.000000000000000    -0.001694511880000    -0.006774924660000
2 32
    -0.021187764330000     0.000000000000000    -0.000000000000000
     0.000000000000000    -0.021187764330000    -0.000000000000000
    -0.000000000000000     0.000000000000000     0.008172164290000
3 1
     1.039941927060000     5.883284351590000     0.000000000000000
     5.883284351590000    -5.753486038770000     0.000000000000000
     0.000000000000000     0.000000000000000     0.786366655940000
3 2
     1.039947452120000    -5.883281589060000     0.000000000000000
    -5.883281589060000    -5.753486038770000    -0.000000000000000
     0.000000000000000    -0.000000000000000     0.786366655940000
3 3
    62.872273976019997    -0.000014653420000     0.000000000000000
    -0.000014653420000    62.872292593070000    -0.000000000000000
     0.000000000000000    -0.000000000000000    14.406285027079997
3 4
    -9.150198880640000    -0.000001080990000     0.000000000000000
    -0.000001080990000     4.436660534210000    -0.000000000000000
     0.000000000000000    -0.000000000000000     0.786366655940000
3 5
    -0.003351189110000     0.003824782840000    -0.000000000000000
     0.003824782840000    -0.007767753920000    -0.000000000000000
    -0.000000000000000    -0.000000000000000    -0.000007206600000
3 6
    -0.003351189110000    -0.003824782840000    -0.000000000000000
    -0.003824782840000    -0.007767753920000     0.000000000000000
    -0.000000000000000     0.000000000000000    -0.000007206600000
3 7
    -0.008005211390000     0.000000000000000     0.000000000000000
     0.000000000000000    -0.008005211390000    -0.000000000000000
     0.000000000000000    -0.000000000000000     0.000726545390000
3 8
    -0.009975976270000     0.000000000000000     0.000000000000000
     0.000000000000000    -0.001142966760000     0.000000000000000
     0.000000000000000     0.000000000000000    -0.000007206600000
3 9
    -0.002093997740000     0.006631273100000     0.000766782240000
     0.006631273100000    -0.009751010240000     0.000442725460000
     0.000766782240000     0.000442725460000     0.003741426500000
3 10
    -0.002093997740000    -0.006631273100000    -0.000766782240000
    -0.006631273100000    -0.009751010240000     0.000442725460000
    -0.000766782240000     0.000442725460000     0.003741426500000
3 11
     0.009495175940000    -0.000000000000000     0.000000000000000
    -0.000000000000000     0.009495175940000     0.000000000000000
     0.000000000000000     0.000000000000000    -0.006217734370000
3 12
    -0.013579636600000    -0.000000000000000     0.000000000000000
    -0.000000000000000     0.001734508510000    -0.000885450920000
     0.000000000000000    -0.000885450920000     0.003741426500000
3 13
    -0.002093997740000     0.006631273100000    -0.000766782240000
     0.006631273100000    -0.009751010240000    -0.000442725460000
    -0.000766782240000    -0.000442725460000     0.003741426500000
3 14
    -0.002093997740000    -0.006631273100000     0.000766782240000
    -0.006631273100000    -0.009751010240000    -0.000442725460000
     0.000766782240000    -0.000442725460000     0.003741426500000
3 15
     0.009495175940000    -0.000000000000000    -0.000000000000000
    -0.000000000000000     0.009495175940000    -0.000000000000000
    -0.000000000000000    -0.000000000000000    -0.006217734370000
3 16
    -0.013579636600000    -0.000000000000000    -0.000000000000000
    -0.000000000000000     0.001734508510000     0.000885450920000
    -0.000000000000000     0.000885450920000     0.003741426500000
3 17
   -22.528183041859997     7.663148439459999    -0.000000000000000
     7.663148439459999   -13.679546860529999    -0.000000000000000
     0.000000000000000     0.000000000000000    -5.165650282820000
3 18
   -22.528175835260001    -7.663141953519999    -0.000000000000000
    -7.663141953519999   -13.679546860529999     0.000000000000000
     0.000000000000000     0.000000000000000    -5.165650282820000
3 19
    -9.255224626070000     0.000006365830000     0.000000000000000
     0.000006365830000   -26.952505636649995     0.000000000000000
    -0.000000000000000    -0.000000000000000    -5.165650282820000
3 20
    -1.355578755840000     0.000000360330000    -0.000000000000000
     0.000000360330000    -1.355579116170000    -0.000000000000000
    -0.000000000000000     0.000000000000000    -1.259021005630000
3 21
    -0.000448730960000    -0.004971473010000     0.000000000000000
    -0.004971473010000    -0.006189388410000     0.000000000000000
     0.000000000000000     0.000000000000000    -0.000547341270000
3 22
    -0.000448730960000     0.004971473010000     0.000000000000000
     0.004971473010000    -0.006189388410000    -0.000000000000000
     0.000000000000000     0.000000000000000    -0.000547341270000
3 23
    -0.009059657080000    -0.000000000000000     0.000000000000000
    -0.000000000000000     0.002421537710000    -0.000000000000000
     0.000000000000000     0.000000000000000    -0.000547341270000
3 24
    -0.003296899390000     0.000000000000000    -0.000000000000000
     0.000000000000000    -0.003296899390000     0.000000000000000
    -0.000000000000000     0.000000000000000    -0.000710210430000
3 25
    -0.021187764330000     0.000000000000000     0.000000000000000
     0.000000000000000    -0.021187764330000     0.000000000000000
     0.000000000000000    -0.000000000000000     0.008172164290000
3 26
    -0.000225686690000     0.000000000000000    -0.000000000000000
     0.000000000000000    -0.014026085470000     0.001427747570000
    -0.000000000000000     0.001694511880000    -0.006774924660000
3 27
    -0.010575925720000    -0.005975712720000    -0.001236532450000
    -0.005975712720000    -0.003675726330000    -0.000713933840000
    -0.001467503980000    -0.000847255940000    -0.006774924660000
3 28
    -0.010575925720000     0.005975712720000     0.001236532450000
     0.005975712720000    -0.003675726330000    -0.000713933840000
     0.001467503980000    -0.000847255940000    -0.006774924660000
3 29
    -0.021187764330000     0.000000000000000    -0.000000000000000
     0.000000000000000    -0.021187764330000    -0.000000000000000
    -0.000000000000000     0.000000000000000     0.008172164290000
3 30
    -0.000225686690000     0.000000000000000     0.000000000000000
     0.000000000000000    -0.014026085470000    -0.001427747570000
     0.000000000000000    -0.001694511880000    -0.006774924660000
3 31
    -0.010575925720000    -0.005975712720000     0.001236532450000
    -0.005975712720000    -0.003675726330000     0.000713933840000
     0.001467503980000     0.000847255940000    -0.006774924660000
3 32
    -0.010575925720000     0.005975712720000    -0.001236532450000
     0.005975712720000    -0.003675726330000     0.000713933840000
    -0.001467503980000     0.000847255940000    -0.006774924660000
4 1
     1.039947452120000    -5.883281589060000     0.000000000000000
    -5.883281589060000    -5.753486038770000    -0.000000000000000
     0.000000000000000    -0.000000000000000     0.786366655940000
4 2
     1.039941927060000     5.883284351590000     0.000000000000000
     5.883284351590000    -5.753486038770000     0.000000000000000
     0.000000000000000     0.000000000000000     0.786366655940000
4 3
    -9.150198880640000    -0.000001080990000     0.000000000000000
    -0.000001080990000     4.436660534210000    -0.000000000000000
     0.000000000000000    -0.000000000000000     0.786366655940000
4 4
    62.872273976019997    -0.000014653420000     0.000000000000000
    -0.000014653420000    62.872292593070000    -0.000000000000000
     0.000000000000000    -0.000000000000000    14.406285027079997
4 5
    -0.003351189110000    -0.003824782840000    -0.000000000000000
    -0.003824782840000    -0.007767753920000     0.000000000000000
    -0.000000000000000     0.000000000000000    -0.000007206600000
4 6
    -0.003351189110000     0.003824782840000    -0.000000000000000
     0.003824782840000    -0.007767753920000    -0.000000000000000
    -0.000000000000000    -0.000000000000000    -0.000007206600000
4 7
    -0.009975976270000     0.000000000000000     0.000000000000000
     0.000000000000000    -0.001142966760000     0.000000000000000
     0.000000000000000     0.000000000000000    -0.000007206600000
4 8
    -0.008005211390000     0.000000000000000     0.000000000000000
     0.000000000000000    -0.008005211390000    -0.000000000000000
     0.000000000000000    -0.000000000000000     0.000726545390000
4 9
    -0.002093997740000    -0.006631273100000    -0.000766782240000
    -0.006631273100000    -0.009751010240000     0.000442725460000
    -0.000766782240000     0.000442725460000     0.003741426500000
4 10
    -0.002093997740000     0.006631273100000     0.000766782240000
     0.006631273100000    -0.009751010240000     0.000442725460000
     0.000766782240000     0.000442725460000     0.003741426500000
4 11
    -0.013579636600000    -0.000000000000000     0.000000000000000
    -0.000000000000000     0.001734508510000    -0.000885450920000
     0.000000000000000    -0.000885450920000     0.003741426500000
4 12
     0.009495175940000    -0.000000000000000     0.000000000000000
    -0.000000000000000     0.009495175940000     0.000000000000000
     0.000000000000000     0.000000000000000    -0.006217734370000
4 13
    -0.002093997740000    -0.006631273100000     0.000766782240000
    -0.006631273100000    -0.009751010240000    -0.000442725460000
     0.000766782240000    -0.000442725460000     0.003741426500000
4 14
    -0.002093997740000     0.006631273100000    -0.000766782240000
     0.006631273100000    -0.009751010240000    -0.000442725460000
    -0.000766782240000    -0.000442725460000     0.003741426500000
4 15
    -0.013579636600000    -0.000000000000000    -0.000000000000000
    -0.000000000000000     0.001734508510000     0.000885450920000
    -0.000000000000000     0.000885450920000     0.003741426500000
4 16
     0.009495175940000    -0.000000000000000    -0.000000000000000
    -0.000000000000000     0.009495175940000    -0.000000000000000
    -0.000000000000000    -0.000000000000000    -0.006217734370000
4 17
   -22.528175835260001    -7.663141953519999    -0.000000000000000
    -7.663141953519999   -13.679546860529999     0.000000000000000
     0.000000000000000     0.000000000000000    -5.165650282820000
4 18
   -22.528183041859997     7.663148439459999    -0.000000000000000
     7.663148439459999   -13.679546860529999    -0.000000000000000
     0.000000000000000     0.000000000000000    -5.165650282820000
4 19
    -1.355578755840000     0.000000360330000    -0.000000000000000
     0.000000360330000    -1.355579116170000    -0.000000000000000
    -0.000000000000000     0.000000000000000    -1.259021005630000
4 20
    -9.255224626070000     0.000006365830000     0.000000000000000
     0.000006365830000   -26.952505636649995     0.000000000000000
    -0.000000000000000    -0.000000000000000    -5.165650282820000
4 21
    -0.000448730960000     0.004971473010000     0.000000000000000
     0.004971473010000    -0.006189388410000    -0.000000000000000
     0.000000000000000     0.000000000000000    -0.000547341270000
4 22
    -0.000448730960000    -0.004971473010000     0.000000000000000
    -0.004971473010000    -0.006189388410000     0.000000000000000
     0.000000000000000     0.000000000000000    -0.000547341270000
4 23
    -0.003296899390000     0.000000000000000    -0.000000000000000
     0.000000000000000    -0.003296899390000     0.000000000000000
    -0.000000000000000     0.000000000000000    -0.000710210430000
4 24
    -0.009059657080000    -0.000000000000000     0.000000000000000
    -0.000000000000000     0.002421537710000    -0.000000000000000
     0.000000000000000     0.000000000000000    -0.000547341270000
4 25
    -0.000225686690000     0.000000000000000    -0.000000000000000
     0.000000000000000    -0.014026085470000     0.001427747570000
    -0.000000000000000     0.001694511880000    -0.006774924660000
4 26
    -0.021187764330000     0.000000000000000     0.000000000000000
     0.000000000000000    -0.021187764330000     0.000000000000000
     0.000000000000000    -0.000000000000000     0.008172164290000
4 27
    -0.010575925720000     0.005975712720000     0.001236532450000
     0.005975712720000    -0.003675726330000    -0.000713933840000
     0.001467503980000    -0.000847255940000    -0.006774924660000
4 28
    -0.010575925720000    -0.005975712720000    -0.001236532450000
    -0.005975712720000    -0.003675726330000    -0.000713933840000
    -0.001467503980000    -0.000847255940000    -0.006774924660000
4 29
    -0.000225686690000     0.000000000000000     0.000000000000000
     0.000000000000000    -0.014026085470000    -0.001427747570000
     0.000000000000000    -0.001694511880000    -0.006774924660000
4 30
    -0.021187764330000     0.000000000000000    -0.000000000000000
     0.000000000000000    -0.021187764330000    -0.000000000000000
    -0.000000000000000     0.000000000000000     0.008172164290000
4 31
    -0.010575925720000     0.005975712720000    -0.001236532450000
     0.005975712720000    -0.003675726330000     0.000713933840000
    -0.001467503980000     0.000847255940000    -0.006774924660000
4 32
    -0.010575925720000    -0.005975712720000     0.001236532450000
    -0.005975712720000    -0.003675726330000     0.000713933840000
     0.001467503980000     0.000847255940000    -0.006774924660000
5 1
    -0.008005211390000     0.000000000000000     0.000000000000000
     0.000000000000000    -0.008005211390000    -0.000000000000000
     0.000000000000000    -0.000000000000000     0.000726545390000
5 2
    -0.009975976270000     0.000000000000000     0.000000000000000
     0.000000000000000    -0.001142966760000     0.000000000000000
     0.000000000000000     0.000000000000000    -0.000007206600000
5 3
    -0.003351189110000     0.003824782840000    -0.000000000000000
     0.003824782840000    -0.007767753920000    -0.000000000000000
    -0.000000000000000    -0.000000000000000    -0.000007206600000
5 4
    -0.003351189110000    -0.003824782840000    -0.000000000000000
    -0.003824782840000    -0.007767753920000     0.000000000000000
    -0.000000000000000     0.000000000000000    -0.000007206600000
5 5
    62.872273976019997    -0.000014653420000     0.000000000000000
    -0.000014653420000    62.872292593070000    -0.000000000000000
     0.000000000000000    -0.000000000000000    14.406285027079997
5 6
    -9.150198880640000    -0.000001080990000     0.000000000000000
    -0.000001080990000     4.436660534210000    -0.000000000000000
     0.000000000000000    -0.000000000000000     0.786366655940000
5 7
     1.039941927060000     5.883284351590000     0.000000000000000
     5.883284351590000    -5.753486038770000     0.000000000000000
     0.000000000000000     0.000000000000000     0.786366655940000
5 8
     1.039947452120000    -5.883281589060000     0.000000000000000
    -5.883281589060000    -5.753486038770000    -0.000000000000000
     0.000000000000000    -0.000000000000000     0.786366655940000
5 9
     0.009495175940000    -0.000000000000000    -0.000000000000000
    -0.000000000000000     0.009495175940000    -0.000000000000000
    -0.000000000000000    -0.000000000000000    -0.006217734370000
5 10
    -0.013579636600000    -0.000000000000000    -0.000000000000000
    -0.000000000000000     0.001734508510000     0.000885450920000
    -0.000000000000000     0.000885450920000     0.003741426500000
5 11
    -0.002093997740000     0.006631273100000    -0.000766782240000
     0.006631273100000    -0.009751010240000    -0.000442725460000
    -0.000766782240000    -0.000442725460000     0.003741426500000
5 12
    -0.002093997740000    -0.006631273100000     0.000766782240000
    -0.006631273100000    -0.009751010240000    -0.000442725460000
     0.000766782240000    -0.000442725460000     0.003741426500000
5 13
     0.009495175940000    -0.000000000000000     0.000000000000000
    -0.000000000000000     0.009495175940000     0.000000000000000
     0.000000000000000     0.000000000000000    -0.006217734370000
5 14
    -0.013579636600000    -0.000000000000000     0.000000000000000
    -0.000000000000000     0.001734508510000    -0.000885450920000
     0.000000000000000    -0.000885450920000     0.003741426500000
5 15
    -0.002093997740000     0.006631273100000     0.000766782240000
     0.006631273100000    -0.009751010240000     0.000442725460000
     0.000766782240000     0.000442725460000     0.003741426500000
5 16
    -0.002093997740000    -0.006631273100000    -0.000766782240000
    -0.006631273100000    -0.009751010240000     0.000442725460000
    -0.000766782240000     0.000442725460000     0.003741426500000
5 17
    -0.009059657080000    -0.000000000000000     0.000000000000000
    -0.000000000000000     0.002421537710000    -0.000000000000000
     0.000000000000000     0.000000000000000    -0.000547341270000
5 18
    -0.003296899390000     0.000000000000000    -0.000000000000000
     0.000000000000000    -0.003296899390000     0.000000000000000