       N       E                     dE             d eps       ncg     rms          rms(c)
DAV:   1    -0.187118871814E+04   -0.18712E+04   -0.89773E+04  2624   0.938E+02
DAV:   2    -0.257938440661E+04   -0.70820E+03   -0.65453E+03  2128   0.290E+02
DAV:   3    -0.262119705803E+04   -0.41813E+02   -0.41104E+02  2816   0.644E+01
DAV:   4    -0.262276160141E+04   -0.15645E+01   -0.15510E+01  2992   0.122E+01
DAV:   5    -0.262282175180E+04   -0.60150E-01   -0.59938E-01  2736   0.215E+00    0.130E+02
RMM:   6    -0.124064498380E+04    0.13822E+04   -0.38847E+02  1792   0.502E+01    0.770E+01
RMM:   7    -0.305724133397E+03    0.93492E+03   -0.15530E+03  1802   0.838E+01    0.247E+01
RMM:   8    -0.314645624899E+03   -0.89215E+01   -0.44210E+01  1792   0.177E+01    0.131E+01
RMM:   9    -0.294748570236E+03    0.19897E+02   -0.72708E+01  1792   0.156E+01    0.240E+00
RMM:  10    -0.295458273071E+03   -0.70970E+00   -0.18706E+00  1796   0.349E+00    0.244E+00
RMM:  11    -0.295249000721E+03    0.20927E+00   -0.11510E+00  1792   0.235E+00    0.533E-01
RMM:  12    -0.295311203553E+03   -0.62203E-01   -0.77074E-02  1797   0.784E-01    0.234E-01
RMM:  13    -0.295312356491E+03   -0.11529E-02   -0.60590E-03  1792   0.203E-01    0.756E-02
RMM:  14    -0.295312662975E+03   -0.30648E-03   -0.65821E-04  1792   0.680E-02    0.270E-02
RMM:  15    -0.295312687977E+03   -0.25003E-04   -0.80682E-05  1793   0.247E-02    0.954E-03
RMM:  16    -0.295312695197E+03   -0.72193E-05   -0.93037E-06  1686   0.938E-03    0.204E-03
RMM:  17    -0.295312695952E+03   -0.75589E-06   -0.66505E-07  1284   0.229E-03
   1 F= -.24396079E+03 E0= -.24396079E+03  d E =0.000000E+00  mag=    -0.0000
 Linear response reoptimize wavefunctions
DAV:   1    -0.295312695923E+03   -0.51352E+02   -0.33619E-07  2336   0.150E-03
DAV:   2    -0.295312695925E+03   -0.15457E-08   -0.16880E-08  1776   0.294E-04
DAV:   3    -0.295312695925E+03   -0.25739E-09   -0.65245E-10  1760   0.775E-05
 Linear response DOF=            4
 Linear response progress:
  Degree of freedom:   1/  4
       N       E                     dE             d eps       ncg     rms          rms(c)
RMM:   1    -0.156565983164E+00   -0.15657E+00    0.29068E-02 11933   0.955E-01
RMM:   2    -0.128695450821E+00    0.27871E-01   -0.71390E-03  6921   0.209E-01    0.247E-01
RMM:   3    -0.127953541622E+00    0.74191E-03   -0.20696E-03  7871   0.860E-02    0.114E-01
RMM:   4    -0.128343458227E+00   -0.38992E-03   -0.17938E-04  8301   0.369E-02    0.420E-02
RMM:   5    -0.128611433068E+00   -0.26797E-03    0.75219E-05  8434   0.181E-02    0.815E-03
RMM:   6    -0.128608906949E+00    0.25261E-05   -0.15016E-04  8792   0.102E-02    0.148E-03
RMM:   7    -0.128601555950E+00    0.73510E-05   -0.11583E-04  8953   0.949E-03    0.532E-04
RMM:   8    -0.128597483298E+00    0.40727E-05   -0.10002E-04  8926   0.946E-03    0.207E-04
 Linear response progress:
  Degree of freedom:   2/  4
       N       E                     dE             d eps       ncg     rms          rms(c)
RMM:   1    -0.125320852477E+00   -0.12532E+00    0.59960E-03  3658   0.690E-01
RMM:   2    -0.122603285813E+00    0.27176E-02   -0.24628E-03  2836   0.119E-01    0.171E-01
RMM:   3    -0.122447175898E+00    0.15611E-03   -0.40967E-04  2837   0.447E-02    0.904E-02
RMM:   4    -0.122640269285E+00   -0.19309E-03   -0.33267E-04  2929   0.391E-02    0.146E-02
RMM:   5    -0.122507333613E+00    0.13294E-03   -0.99074E-05  3408   0.139E-02    0.236E-03
RMM:   6    -0.122498027309E+00    0.93063E-05   -0.89930E-05  3550   0.106E-02    0.689E-04
RMM:   7    -0.122490618126E+00    0.74092E-05   -0.89276E-05  3576   0.104E-02    0.270E-04
RMM:   8    -0.122490550330E+00    0.67795E-07   -0.90257E-05  3590   0.104E-02    0.156E-04
 Linear response progress:
  Degree of freedom:   3/  4
       N       E                     dE             d eps       ncg     rms          rms(c)
RMM:   1    -0.156620831191E+00   -0.15662E+00    0.28701E-02 11900   0.955E-01
RMM:   2    -0.128480361207E+00    0.28140E-01   -0.63496E-03  6964   0.209E-01    0.247E-01
RMM:   3    -0.127920095382E+00    0.56027E-03   -0.30237E-03  7869   0.861E-02    0.114E-01
RMM:   4    -0.128228508577E+00   -0.30841E-03   -0.26429E-04  8295   0.368E-02    0.420E-02
RMM:   5    -0.128489392651E+00   -0.26088E-03    0.60547E-05  8487   0.179E-02    0.814E-03
RMM:   6    -0.128482829810E+00    0.65628E-05   -0.14651E-04  8796   0.982E-03    0.150E-03
RMM:   7    -0.128459879227E+00    0.22951E-04    0.30476E-05  8948   0.907E-03    0.527E-04
RMM:   8    -0.128454455748E+00    0.54235E-05    0.48667E-05  8928   0.903E-03    0.195E-04
 Linear response progress:
  Degree of freedom:   4/  4
       N       E                     dE             d eps       ncg     rms          rms(c)
RMM:   1    -0.125438775575E+00   -0.12544E+00    0.55571E-03  3671   0.690E-01
RMM:   2    -0.122706609033E+00    0.27322E-02   -0.24063E-03  2811   0.118E-01    0.171E-01
RMM:   3    -0.122547062088E+00    0.15955E-03   -0.39101E-04  2799   0.447E-02    0.903E-02
RMM:   4    -0.122739168408E+00   -0.19211E-03   -0.31696E-04  2887   0.391E-02    0.146E-02
RMM:   5    -0.122610119375E+00    0.12905E-03   -0.77919E-05  3389   0.133E-02    0.238E-03
RMM:   6    -0.122600993572E+00    0.91258E-05   -0.71019E-05  3574   0.993E-03    0.644E-04
RMM:   7    -0.122593957136E+00    0.70364E-05   -0.68164E-05  3582   0.973E-03    0.254E-04
RMM:   8    -0.122595330956E+00   -0.13738E-05   -0.70398E-05  3592   0.973E-03    0.133E-04
 Linear response finished
