# Thermal properties / unit cell (natom)

unit:
  temperature:   K
  free_energy:   kJ/mol
  entropy:       J/K/mol
  heat_capacity: J/K/mol

natom: 4    
cutoff_frequency: 0.00000
num_modes: 1327104
num_integrated_modes: 1327104

zero_point_energy:      66.4326101

thermal_properties:
- temperature:         0.0000000
  free_energy:        66.4326101
  entropy:             0.0000000
  heat_capacity:       0.0000000
  energy:             66.4326101

- temperature:        10.0000000
  free_energy:        66.4325994
  entropy:             0.0048852
  heat_capacity:       0.0167504
  energy:             66.4326483

- temperature:        20.0000000
  free_energy:        66.4323934
  entropy:             0.0444432
  heat_capacity:       0.1299339
  energy:             66.4332822

- temperature:        30.0000000
  free_energy:        66.4315329
  entropy:             0.1368704
  heat_capacity:       0.3604074
  energy:             66.4356390

- temperature:        40.0000000
  free_energy:        66.4294708
  entropy:             0.2848116
  heat_capacity:       0.7029928
  energy:             66.4408632

- temperature:        50.0000000
  free_energy:        66.4256510
  entropy:             0.4884665
  heat_capacity:       1.1583948
  energy:             66.4500743

- temperature:        60.0000000
  free_energy:        66.4195135
  entropy:             0.7485356
  heat_capacity:       1.7321631
  energy:             66.4644256

- temperature:        70.0000000
  free_energy:        66.4104878
  entropy:             1.0663659
  heat_capacity:       2.4305509
  energy:             66.4851334

- temperature:        80.0000000
  free_energy:        66.3979887
  entropy:             1.4434274
  heat_capacity:       3.2566341
  energy:             66.5134629

- temperature:        90.0000000
  free_energy:        66.3814182
  entropy:             1.8807530
  heat_capacity:       4.2085413
  energy:             66.5506860

- temperature:       100.0000000
  free_energy:        66.3601718
  entropy:             2.3785947
  heat_capacity:       5.2795922
  energy:             66.5980313

- temperature:       110.0000000
  free_energy:        66.3336467
  entropy:             2.9363053
  heat_capacity:       6.4592818
  energy:             66.6566403

- temperature:       120.0000000
  free_energy:        66.3012511
  entropy:             3.5523690
  heat_capacity:       7.7344649
  energy:             66.7275354

- temperature:       130.0000000
  free_energy:        66.2624123
  entropy:             4.2245144
  heat_capacity:       9.0905152
  energy:             66.8115992

- temperature:       140.0000000
  free_energy:        66.2165834
  entropy:             4.9498686
  heat_capacity:      10.5123772
  energy:             66.9095650

- temperature:       150.0000000
  free_energy:        66.1632486
  entropy:             5.7251249
  heat_capacity:      11.9854481
  energy:             67.0220173

- temperature:       160.0000000
  free_energy:        66.1019265
  entropy:             6.5467067
  heat_capacity:      13.4962431
  energy:             67.1493995

- temperature:       170.0000000
  free_energy:        66.0321723
  entropy:             7.4109151
  heat_capacity:      15.0328232
  energy:             67.2920279

- temperature:       180.0000000
  free_energy:        65.9535784
  entropy:             8.3140521
  heat_capacity:      16.5850015
  energy:             67.4501078

- temperature:       190.0000000
  free_energy:        65.8657735
  entropy:             9.2525166
  heat_capacity:      18.1443655
  energy:             67.6237517

- temperature:       200.0000000
  free_energy:        65.7684218
  entropy:            10.2228730
  heat_capacity:      19.7041677
  energy:             67.8129964

- temperature:       210.0000000
  free_energy:        65.6612206
  entropy:            11.2218963
  heat_capacity:      21.2591342
  energy:             68.0178188

- temperature:       220.0000000
  free_energy:        65.5438983
  entropy:            12.2465959
  heat_capacity:      22.8052333
  energy:             68.2381494

- temperature:       230.0000000
  free_energy:        65.4162122
  entropy:            13.2942238
  heat_capacity:      24.3394377
  energy:             68.4738837

- temperature:       240.0000000
  free_energy:        65.2779458
  entropy:            14.3622716
  heat_capacity:      25.8595020
  energy:             68.7248910

- temperature:       250.0000000
  free_energy:        65.1289064
  entropy:            15.4484587
  heat_capacity:      27.3637671
  energy:             68.9910210

- temperature:       260.0000000
  free_energy:        64.9689231
  entropy:            16.5507170
  heat_capacity:      28.8509977
  energy:             69.2721095

- temperature:       270.0000000
  free_energy:        64.7978447
  entropy:            17.6671716
  heat_capacity:      30.3202535
  energy:             69.5679811

- temperature:       280.0000000
  free_energy:        64.6155380
  entropy:            18.7961220
  heat_capacity:      31.7707913
  energy:             69.8784522

- temperature:       290.0000000
  free_energy:        64.4218858
  entropy:            19.9360229
  heat_capacity:      33.2019944
  energy:             70.2033324

- temperature:       300.0000000
  free_energy:        64.2167857
  entropy:            21.0854668
  heat_capacity:      34.6133233
  energy:             70.5424258

- temperature:       310.0000000
  free_energy:        64.0001489
  entropy:            22.2431679
  heat_capacity:      36.0042851
  energy:             70.8955310

- temperature:       320.0000000
  free_energy:        63.7718988
  entropy:            23.4079477
  heat_capacity:      37.3744151
  energy:             71.2624421

- temperature:       330.0000000
  free_energy:        63.5319700
  entropy:            24.5787223
  heat_capacity:      38.7232685
  energy:             71.6429484

- temperature:       340.0000000
  free_energy:        63.2803077
  entropy:            25.7544922
  heat_capacity:      40.0504183
  energy:             72.0368351

- temperature:       350.0000000
  free_energy:        63.0168666
  entropy:            26.9343327
  heat_capacity:      41.3554574
  energy:             72.4438830

- temperature:       360.0000000
  free_energy:        62.7416104
  entropy:            28.1173858
  heat_capacity:      42.6380032
  energy:             72.8638692

- temperature:       370.0000000
  free_energy:        62.4545109
  entropy:            29.3028543
  heat_capacity:      43.8977029
  energy:             73.2965670

- temperature:       380.0000000
  free_energy:        62.1555477
  entropy:            30.4899957
  heat_capacity:      45.1342393
  energy:             73.7417461

- temperature:       390.0000000
  free_energy:        61.8447077
  entropy:            31.6781177
  heat_capacity:      46.3473353
  energy:             74.1991736

- temperature:       400.0000000
  free_energy:        61.5219842
  entropy:            32.8665741
  heat_capacity:      47.5367585
  energy:             74.6686139

- temperature:       410.0000000
  free_energy:        61.1873771
  entropy:            34.0547613
  heat_capacity:      48.7023243
  energy:             75.1498292

- temperature:       420.0000000
  free_energy:        60.8408918
  entropy:            35.2421157
  heat_capacity:      49.8438978
  energy:             75.6425804

- temperature:       430.0000000
  free_energy:        60.4825393
  entropy:            36.4281107
  heat_capacity:      50.9613949
  energy:             76.1466269

- temperature:       440.0000000
  free_energy:        60.1123358
  entropy:            37.6122549
  heat_capacity:      52.0547822
  energy:             76.6617279

- temperature:       450.0000000
  free_energy:        59.7303019
  entropy:            38.7940896
  heat_capacity:      53.1240760
  energy:             77.1876423

- temperature:       460.0000000
  free_energy:        59.3364631
  entropy:            39.9731875
  heat_capacity:      54.1693413
  energy:             77.7241293

- temperature:       470.0000000
  free_energy:        58.9308486
  entropy:            41.1491505
  heat_capacity:      55.1906890
  energy:             78.2709494

- temperature:       480.0000000
  free_energy:        58.5134918
  entropy:            42.3216086
  heat_capacity:      56.1882738
  energy:             78.8278639

- temperature:       490.0000000
  free_energy:        58.0844293
  entropy:            43.4902183
  heat_capacity:      57.1622909
  energy:             79.3946363

- temperature:       500.0000000
  free_energy:        57.6437013
  entropy:            44.6546613
  heat_capacity:      58.1129731
  energy:             79.9710319

- temperature:       510.0000000
  free_energy:        57.1913509
  entropy:            45.8146429
  heat_capacity:      59.0405875
  energy:             80.5568188

- temperature:       520.0000000
  free_energy:        56.7274242
  entropy:            46.9698915
  heat_capacity:      59.9454321
  energy:             81.1517678

- temperature:       530.0000000
  free_energy:        56.2519697
  entropy:            48.1201565
  heat_capacity:      60.8278323
  energy:             81.7556527

- temperature:       540.0000000
  free_energy:        55.7650385
  entropy:            49.2652080
  heat_capacity:      61.6881379
  energy:             82.3682508

- temperature:       550.0000000
  free_energy:        55.2666836
  entropy:            50.4048352
  heat_capacity:      62.5267201
  energy:             82.9893430

- temperature:       560.0000000
  free_energy:        54.7569605
  entropy:            51.5388457
  heat_capacity:      63.3439678
  energy:             83.6187141

- temperature:       570.0000000
  free_energy:        54.2359260
  entropy:            52.6670641
  heat_capacity:      64.1402856
  energy:             84.2561526

- temperature:       580.0000000
  free_energy:        53.7036390
  entropy:            53.7893317
  heat_capacity:      64.9160904
  energy:             84.9014514

- temperature:       590.0000000
  free_energy:        53.1601597
  entropy:            54.9055046
  heat_capacity:      65.6718094
  energy:             85.5544074

- temperature:       600.0000000
  free_energy:        52.6055497
  entropy:            56.0154540
  heat_capacity:      66.4078773
  energy:             86.2148221

- temperature:       610.0000000
  free_energy:        52.0398718
  entropy:            57.1190642
  heat_capacity:      67.1247348
  energy:             86.8825010

- temperature:       620.0000000
  free_energy:        51.4631899
  entropy:            58.2162328
  heat_capacity:      67.8228260
  energy:             87.5572542

- temperature:       630.0000000
  free_energy:        50.8755689
  entropy:            59.3068691
  heat_capacity:      68.5025972
  energy:             88.2388964

- temperature:       640.0000000
  free_energy:        50.2770745
  entropy:            60.3908938
  heat_capacity:      69.1644949
  energy:             88.9272466

- temperature:       650.0000000
  free_energy:        49.6677733
  entropy:            61.4682384
  heat_capacity:      69.8089647
  energy:             89.6221282

- temperature:       660.0000000
  free_energy:        49.0477322
  entropy:            62.5388440
  heat_capacity:      70.4364496
  energy:             90.3233693

- temperature:       670.0000000
  free_energy:        48.4170190
  entropy:            63.6026612
  heat_capacity:      71.0473895
  energy:             91.0308021

- temperature:       680.0000000
  free_energy:        47.7757018
  entropy:            64.6596494
  heat_capacity:      71.6422196
  energy:             91.7442633

- temperature:       690.0000000
  free_energy:        47.1238489
  entropy:            65.7097758
  heat_capacity:      72.2213699
  energy:             92.4635942

- temperature:       700.0000000
  free_energy:        46.4615292
  entropy:            66.7530153
  heat_capacity:      72.7852645
  energy:             93.1886399

- temperature:       710.0000000
  free_energy:        45.7888116
  entropy:            67.7893498
  heat_capacity:      73.3343207
  energy:             93.9192500

- temperature:       720.0000000
  free_energy:        45.1057653
  entropy:            68.8187680
  heat_capacity:      73.8689485
  energy:             94.6552782

- temperature:       730.0000000
  free_energy:        44.4124593
  entropy:            69.8412642
  heat_capacity:      74.3895506
  energy:             95.3965822

- temperature:       740.0000000
  free_energy:        43.7089631
  entropy:            70.8568388
  heat_capacity:      74.8965213
  energy:             96.1430238

- temperature:       750.0000000
  free_energy:        42.9953456
  entropy:            71.8654972
  heat_capacity:      75.3902468
  energy:             96.8944685

- temperature:       760.0000000
  free_energy:        42.2716761
  entropy:            72.8672496
  heat_capacity:      75.8711048
  energy:             97.6507858

- temperature:       770.0000000
  free_energy:        41.5380236
  entropy:            73.8621108
  heat_capacity:      76.3394640
  energy:             98.4118489

- temperature:       780.0000000
  free_energy:        40.7944568
  entropy:            74.8500998
  heat_capacity:      76.7956845
  energy:             99.1775347

- temperature:       790.0000000
  free_energy:        40.0410444
  entropy:            75.8312391
  heat_capacity:      77.2401174
  energy:             99.9477233

- temperature:       800.0000000
  free_energy:        39.2778548
  entropy:            76.8055551
  heat_capacity:      77.6731049
  energy:            100.7222989

- temperature:       810.0000000
  free_energy:        38.5049560
  entropy:            77.7730771
  heat_capacity:      78.0949802
  energy:            101.5011484

- temperature:       820.0000000
  free_energy:        37.7224158
  entropy:            78.7338375
  heat_capacity:      78.5060676
  energy:            102.2841625

- temperature:       830.0000000
  free_energy:        36.9303017
  entropy:            79.6878713
  heat_capacity:      78.9066825
  energy:            103.0712348

- temperature:       840.0000000
  free_energy:        36.1286807
  entropy:            80.6352162
  heat_capacity:      79.2971315
  energy:            103.8622623

- temperature:       850.0000000
  free_energy:        35.3176195
  entropy:            81.5759119
  heat_capacity:      79.6777126
  energy:            104.6571446

- temperature:       860.0000000
  free_energy:        34.4971844
  entropy:            82.5100002
  heat_capacity:      80.0487152
  energy:            105.4557846

- temperature:       870.0000000
  free_energy:        33.6674414
  entropy:            83.4375247
  heat_capacity:      80.4104204
  energy:            106.2580879

- temperature:       880.0000000
  free_energy:        32.8284557
  entropy:            84.3585309
  heat_capacity:      80.7631008
  energy:            107.0639629

- temperature:       890.0000000
  free_energy:        31.9802923
  entropy:            85.2730656
  heat_capacity:      81.1070211
  energy:            107.8733207

- temperature:       900.0000000
  free_energy:        31.1230158
  entropy:            86.1811769
  heat_capacity:      81.4424380
  energy:            108.6860750

- temperature:       910.0000000
  free_energy:        30.2566900
  entropy:            87.0829142
  heat_capacity:      81.7696005
  energy:            109.5021420

- temperature:       920.0000000
  free_energy:        29.3813786
  entropy:            87.9783280
  heat_capacity:      82.0887497
  energy:            110.3214403

- temperature:       930.0000000
  free_energy:        28.4971444
  entropy:            88.8674695
  heat_capacity:      82.4001198
  energy:            111.1438910

- temperature:       940.0000000
  free_energy:        27.6040499
  entropy:            89.7503911
  heat_capacity:      82.7039374
  energy:            111.9694175

- temperature:       950.0000000
  free_energy:        26.7021571
  entropy:            90.6271455
  heat_capacity:      83.0004221
  energy:            112.7979453

- temperature:       960.0000000
  free_energy:        25.7915274
  entropy:            91.4977863
  heat_capacity:      83.2897870
  energy:            113.6294022

- temperature:       970.0000000
  free_energy:        24.8722216
  entropy:            92.3623675
  heat_capacity:      83.5722381
  energy:            114.4637180

- temperature:       980.0000000
  free_energy:        23.9443001
  entropy:            93.2209434
  heat_capacity:      83.8479752
  energy:            115.3008246

- temperature:       990.0000000
  free_energy:        23.0078226
  entropy:            94.0735689
  heat_capacity:      84.1171918
  energy:            116.1406558

- temperature:      1000.0000000
  free_energy:        22.0628483
  entropy:            94.9202990
  heat_capacity:      84.3800751
  energy:            116.9831473
