unknown system                          
            1
     4.934582    0.000000    0.000000
    -2.467292    4.273474    0.000000
     0.000000    0.000000   15.606146
   C 
  32
Direct configuration=     1
   0.00000000  0.00000000  0.12500000
   0.50000000  0.00000000  0.12500000
   0.00000000  0.50000000  0.12500000
   0.50000000  0.50000000  0.12500000
   0.00000000  0.00000000  0.62500000
   0.50000000  0.00000000  0.62500000
   0.00000000  0.50000000  0.62500000
   0.50000000  0.50000000  0.62500000
   0.00000000  0.00000000  0.37500000
   0.50000000  0.00000000  0.37500000
   0.00000000  0.50000000  0.37500000
   0.50000000  0.50000000  0.37500000
   0.00000000  0.00000000  0.87500000
   0.50000000  0.00000000  0.87500000
   0.00000000  0.50000000  0.87500000
   0.50000000  0.50000000  0.87500000
   0.16666650  0.33333350  0.12500000
   0.66666650  0.33333350  0.12500000
   0.16666650  0.83333350  0.12500000
   0.66666650  0.83333350  0.12500000
   0.16666650  0.33333350  0.62500000
   0.66666650  0.33333350  0.62500000
   0.16666650  0.83333350  0.62500000
   0.66666650  0.83333350  0.62500000
   0.33333350  0.16666650  0.37500000
   0.83333350  0.16666650  0.37500000
   0.33333350  0.66666650  0.37500000
   0.83333350  0.66666650  0.37500000
   0.33333350  0.16666650  0.87500000
   0.83333350  0.16666650  0.87500000
   0.33333350  0.66666650  0.87500000
   0.83333350  0.66666650  0.87500000
