   32   32    1    2
  0.5717550E+01  0.5026188E-09  0.5026188E-09  0.8362804E-09  0.1500000E-16
   1.0000000000000000E-004
  CAR 
 unknown system                          
    128      4    112
 
  0.1262379E-14  0.1262379E-14  0.1262379E-14  0.1250000E+00
    1      -11.741215    -11.741214   1.000000   1.000000
    2      -10.075601    -10.075600   1.000000   1.000000
    3      -10.075601    -10.075600   1.000000   1.000000
    4       -6.527047     -6.527044   1.000000   1.000000
    5       -6.527004     -6.527000   1.000000   1.000000
    6       -6.527002     -6.526998   1.000000   1.000000
    7       -6.207015     -6.207020   1.000000   1.000000
    8       -5.032617     -5.032614   1.000000   1.000000
    9       -5.032617     -5.032614   1.000000   1.000000
   10       -5.032578     -5.032574   1.000000   1.000000
   11       -5.032578     -5.032574   1.000000   1.000000
   12       -5.032576     -5.032572   1.000000   1.000000
   13       -5.032576     -5.032572   1.000000   1.000000
   14       -4.695104     -4.695105   1.000000   1.000000
   15       -4.695103     -4.695104   1.000000   1.000000
   16       -4.695032     -4.695033   1.000000   1.000000
   17       -3.656804     -3.656794   1.000000   1.000000
   18       -2.974466     -2.974468   1.000000   1.000000
   19       -2.974466     -2.974468   1.000000   1.000000
   20       -2.974465     -2.974467   1.000000   1.000000
   21       -2.974465     -2.974467   1.000000   1.000000
   22       -2.974397     -2.974398   1.000000   1.000000
   23       -2.974397     -2.974398   1.000000   1.000000
   24       -1.378650     -1.378651   1.000000   1.000000
   25       -1.378601     -1.378602   1.000000   1.000000
   26       -1.378599     -1.378600   1.000000   1.000000
   27       -0.017887     -0.017893   1.000000   1.000000
   28       -0.017886     -0.017892   1.000000   1.000000
   29       -0.017805     -0.017811   1.000000   1.000000
   30        0.744538      0.744545   1.000000   1.000000
   31        0.744571      0.744579   1.000000   1.000000
   32        0.744572      0.744580   1.000000   1.000000
   33        2.946657      2.946661   1.000000   1.000000
   34        2.946657      2.946661   1.000000   1.000000
   35        3.528967      3.528970   1.000000   1.000000
   36        3.528993      3.528996   1.000000   1.000000
   37        3.528995      3.528998   1.000000   1.000000
   38        4.047199      4.047206   1.000000   1.000000
   39        4.047199      4.047207   1.000000   1.000000
   40        4.047253      4.047261   1.000000   1.000000
   41        4.885294      4.885296   1.000000   1.000000
   42        4.885294      4.885296   1.000000   1.000000
   43        4.885322      4.885324   1.000000   1.000000
   44        4.885322      4.885324   1.000000   1.000000
   45        4.885323      4.885325   1.000000   1.000000
   46        4.885323      4.885325   1.000000   1.000000
   47        5.163509      5.163512   1.000000   1.000000
   48        5.163509      5.163512   1.000000   1.000000
   49        5.163514      5.163518   1.000000   1.000000
   50        5.163514      5.163518   1.000000   1.000000
   51        5.163515      5.163518   1.000000   1.000000
   52        5.163515      5.163518   1.000000   1.000000
   53        6.834963      6.834962   1.000000   1.000000
   54        6.834995      6.834995   1.000000   1.000000
   55        6.834996      6.834996   1.000000   1.000000
   56        6.888750      6.888755   1.000000   1.000000
   57        6.888837      6.888842   1.000000   1.000000
   58        8.118787      8.118792   1.000000   1.000000
   59        8.118787      8.118792   1.000000   1.000000
   60        8.118874      8.118879   1.000000   1.000000
   61        8.118874      8.118879   1.000000   1.000000
   62        9.484550      9.484553   1.000000   1.000000
   63        9.969957      9.969961   1.000000   1.000000
   64        9.970055      9.970059   1.000000   1.000000
   65       14.402582     14.402576   0.000000   0.000000
   66       14.402610     14.402605   0.000000   0.000000
   67       14.402613     14.402608   0.000000   0.000000
   68       14.912533     14.912534   0.000000   0.000000
   69       14.912623     14.912624   0.000000   0.000000
   70       15.303875     15.303878   0.000000   0.000000
   71       15.804390     15.804385   0.000000   0.000000
   72       15.804390     15.804385   0.000000   0.000000
   73       15.804419     15.804415   0.000000   0.000000
   74       15.804419     15.804415   0.000000   0.000000
   75       15.804422     15.804418   0.000000   0.000000
   76       15.804422     15.804418   0.000000   0.000000
   77       16.429605     16.429612   0.000000   0.000000
   78       16.429605     16.429612   0.000000   0.000000
   79       16.429606     16.429613   0.000000   0.000000
   80       16.429606     16.429613   0.000000   0.000000
   81       16.429629     16.429637   0.000000   0.000000
   82       16.429629     16.429637   0.000000   0.000000
   83       17.181131     17.181129   0.000000   0.000000
   84       17.181131     17.181129   0.000000   0.000000
   85       17.181228     17.181226   0.000000   0.000000
   86       17.181228     17.181226   0.000000   0.000000
   87       17.533770     17.533775   0.000000   0.000000
   88       17.533770     17.533775   0.000000   0.000000
   89       17.957858     17.957863   0.000000   0.000000
   90       18.027261     18.027269   0.000000   0.000000
   91       18.027323     18.027331   0.000000   0.000000
   92       18.027323     18.027331   0.000000   0.000000
   93       18.216462     18.216474   0.000000   0.000000
   94       18.216463     18.216475   0.000000   0.000000
   95       18.216470     18.216482   0.000000   0.000000
   96       18.308463     18.308457   0.000000   0.000000
   97       18.308504     18.308498   0.000000   0.000000
   98       18.308505     18.308499   0.000000   0.000000
   99       19.434469     19.434463   0.000000   0.000000
  100       19.434584     19.434578   0.000000   0.000000
  101       20.787619     20.787621   0.000000   0.000000
  102       20.787654     20.787657   0.000000   0.000000
  103       20.787655     20.787658   0.000000   0.000000
  104       22.398482     22.398490   0.000000   0.000000
  105       22.398482     22.398491   0.000000   0.000000
  106       22.398482     22.398491   0.000000   0.000000
  107       22.398482     22.398492   0.000000   0.000000
  108       22.398495     22.398503   0.000000   0.000000
  109       22.398495     22.398504   0.000000   0.000000
  110       22.690643     22.690648   0.000000   0.000000
  111       22.690644     22.690649   0.000000   0.000000
  112       22.690706     22.690714   0.000000   0.000000
 
  0.5000000E+00  0.1208938E-14  0.1262379E-14  0.3750000E+00
    1      -10.209250    -10.209249   1.000000   1.000000
    2      -10.209250    -10.209249   1.000000   1.000000
    3       -8.570115     -8.570114   1.000000   1.000000
    4       -8.570115     -8.570114   1.000000   1.000000
    5       -8.570115     -8.570114   1.000000   1.000000
    6       -8.570115     -8.570114   1.000000   1.000000
    7       -7.285626     -7.285624   1.000000   1.000000
    8       -7.285626     -7.285624   1.000000   1.000000
    9       -5.720085     -5.720083   1.000000   1.000000
   10       -5.720085     -5.720083   1.000000   1.000000
   11       -5.720085     -5.720083   1.000000   1.000000
   12       -5.720085     -5.720083   1.000000   1.000000
   13       -4.822272     -4.822277   1.000000   1.000000
   14       -4.822272     -4.822277   1.000000   1.000000
   15       -2.463933     -2.463929   1.000000   1.000000
   16       -2.463933     -2.463929   1.000000   1.000000
   17       -2.315773     -2.315763   1.000000   1.000000
   18       -2.315773     -2.315763   1.000000   1.000000
   19       -2.165684     -2.165687   1.000000   1.000000
   20       -2.165684     -2.165687   1.000000   1.000000
   21       -0.729652     -0.729649   1.000000   1.000000
   22       -0.729652     -0.729649   1.000000   1.000000
   23       -0.729652     -0.729649   1.000000   1.000000
   24       -0.729652     -0.729649   1.000000   1.000000
   25        0.437664      0.437662   1.000000   1.000000
   26        0.437664      0.437662   1.000000   1.000000
   27        0.820817      0.820824   1.000000   1.000000
   28        0.820817      0.820824   1.000000   1.000000
   29        1.670252      1.670255   1.000000   1.000000
   30        1.670252      1.670255   1.000000   1.000000
   31        1.984146      1.984142   1.000000   1.000000
   32        1.984146      1.984142   1.000000   1.000000
   33        1.984146      1.984142   1.000000   1.000000
   34        1.984146      1.984142   1.000000   1.000000
   35        2.293756      2.293756   1.000000   1.000000
   36        2.293756      2.293756   1.000000   1.000000
   37        2.557955      2.557958   1.000000   1.000000
   38        2.557955      2.557958   1.000000   1.000000
   39        2.557955      2.557958   1.000000   1.000000
   40        2.557955      2.557958   1.000000   1.000000
   41        4.295844      4.295847   1.000000   1.000000
   42        4.295844      4.295847   1.000000   1.000000
   43        4.295844      4.295847   1.000000   1.000000
   44        4.295844      4.295847   1.000000   1.000000
   45        4.414890      4.414884   1.000000   1.000000
   46        4.414890      4.414884   1.000000   1.000000
   47        4.812098      4.812105   1.000000   1.000000
   48        4.812098      4.812105   1.000000   1.000000
   49        4.859999      4.860002   1.000000   1.000000
   50        4.859999      4.860002   1.000000   1.000000
   51        5.348996      5.348999   1.000000   1.000000
   52        5.348996      5.348999   1.000000   1.000000
   53        5.348996      5.348999   1.000000   1.000000
   54        5.348996      5.348999   1.000000   1.000000
   55        5.436130      5.436129   1.000000   1.000000
   56        5.436130      5.436129   1.000000   1.000000
   57        6.185987      6.185990   1.000000   1.000000
   58        6.185987      6.185990   1.000000   1.000000
   59        6.185987      6.185990   1.000000   1.000000
   60        6.185987      6.185990   1.000000   1.000000
   61        7.439310      7.439314   1.000000   1.000000
   62        7.439310      7.439314   1.000000   1.000000
   63        8.106604      8.106605   1.000000   1.000000
   64        8.106604      8.106605   1.000000   1.000000
   65       14.422820     14.422831   0.000000   0.000000
   66       14.422820     14.422831   0.000000   0.000000
   67       14.851643     14.851642   0.000000   0.000000
   68       14.851643     14.851642   0.000000   0.000000
   69       15.975014     15.975012   0.000000   0.000000
   70       15.975014     15.975012   0.000000   0.000000
   71       15.975014     15.975012   0.000000   0.000000
   72       15.975014     15.975012   0.000000   0.000000
   73       16.886407     16.886409   0.000000   0.000000
   74       16.886407     16.886409   0.000000   0.000000
   75       17.172445     17.172453   0.000000   0.000000
   76       17.172445     17.172453   0.000000   0.000000
   77       17.172445     17.172453   0.000000   0.000000
   78       17.172445     17.172453   0.000000   0.000000
   79       17.359793     17.359800   0.000000   0.000000
   80       17.359793     17.359800   0.000000   0.000000
   81       19.351582     19.351588   0.000000   0.000000
   82       19.351582     19.351588   0.000000   0.000000
   83       19.351582     19.351588   0.000000   0.000000
   84       19.351582     19.351588   0.000000   0.000000
   85       19.642218     19.642223   0.000000   0.000000
   86       19.642218     19.642223   0.000000   0.000000
   87       19.693602     19.693603   0.000000   0.000000
   88       19.693602     19.693603   0.000000   0.000000
   89       19.995016     19.995025   0.000000   0.000000
   90       19.995016     19.995025   0.000000   0.000000
   91       19.995016     19.995025   0.000000   0.000000
   92       19.995016     19.995025   0.000000   0.000000
   93       20.056204     20.056198   0.000000   0.000000
   94       20.056204     20.056198   0.000000   0.000000
   95       20.057302     20.057310   0.000000   0.000000
   96       20.057302     20.057310   0.000000   0.000000
   97       20.405822     20.405826   0.000000   0.000000
   98       20.405822     20.405826   0.000000   0.000000
   99       20.405822     20.405826   0.000000   0.000000
  100       20.405822     20.405826   0.000000   0.000000
  101       20.670428     20.670431   0.000000   0.000000
  102       20.670428     20.670431   0.000000   0.000000
  103       20.698641     20.698643   0.000000   0.000000
  104       20.698641     20.698643   0.000000   0.000000
  105       20.698641     20.698643   0.000000   0.000000
  106       20.698641     20.698643   0.000000   0.000000
  107       23.128465     23.128465   0.000000   0.000000
  108       23.128466     23.128467   0.000000   0.000000
  109       23.152911     23.152918   0.000000   0.000000
  110       23.152915     23.152921   0.000000   0.000000
  111       23.876232     23.876282   0.000000   0.000000
  112       23.879916     23.879592   0.000000   0.000000
 
  0.1262379E-14  0.1262379E-14  0.5000000E+00  0.1250000E+00
    1      -11.321459    -11.321458   1.000000   1.000000
    2      -11.321459    -11.321458   1.000000   1.000000
    3       -8.076528     -8.076529   1.000000   1.000000
    4       -8.076528     -8.076529   1.000000   1.000000
    5       -6.143158     -6.143154   1.000000   1.000000
    6       -6.143158     -6.143154   1.000000   1.000000
    7       -6.143115     -6.143111   1.000000   1.000000
    8       -6.143115     -6.143111   1.000000   1.000000
    9       -6.143113     -6.143109   1.000000   1.000000
   10       -6.143113     -6.143109   1.000000   1.000000
   11       -4.355709     -4.355709   1.000000   1.000000
   12       -4.355709     -4.355709   1.000000   1.000000
   13       -4.355708     -4.355708   1.000000   1.000000
   14       -4.355708     -4.355708   1.000000   1.000000
   15       -4.355645     -4.355645   1.000000   1.000000
   16       -4.355645     -4.355645   1.000000   1.000000
   17       -3.002757     -3.002756   1.000000   1.000000
   18       -3.002757     -3.002756   1.000000   1.000000
   19       -3.002720     -3.002718   1.000000   1.000000
   20       -3.002720     -3.002718   1.000000   1.000000
   21       -3.002718     -3.002717   1.000000   1.000000
   22       -3.002718     -3.002717   1.000000   1.000000
   23       -1.261394     -1.261398   1.000000   1.000000
   24       -1.261394     -1.261398   1.000000   1.000000
   25       -1.261393     -1.261397   1.000000   1.000000
   26       -1.261393     -1.261397   1.000000   1.000000
   27       -1.261317     -1.261320   1.000000   1.000000
   28       -1.261317     -1.261320   1.000000   1.000000
   29       -1.078398     -1.078393   1.000000   1.000000
   30       -1.078398     -1.078393   1.000000   1.000000
   31        2.817221      2.817225   1.000000   1.000000
   32        2.817221      2.817225   1.000000   1.000000
   33        2.817253      2.817257   1.000000   1.000000
   34        2.817253      2.817257   1.000000   1.000000
   35        2.817254      2.817259   1.000000   1.000000
   36        2.817254      2.817259   1.000000   1.000000
   37        3.890235      3.890238   1.000000   1.000000
   38        3.890235      3.890238   1.000000   1.000000
   39        3.890262      3.890265   1.000000   1.000000
   40        3.890262      3.890265   1.000000   1.000000
   41        3.890264      3.890266   1.000000   1.000000
   42        3.890264      3.890266   1.000000   1.000000
   43        5.150645      5.150649   1.000000   1.000000
   44        5.150645      5.150649   1.000000   1.000000
   45        5.150645      5.150650   1.000000   1.000000
   46        5.150645      5.150650   1.000000   1.000000
   47        5.150687      5.150691   1.000000   1.000000
   48        5.150687      5.150691   1.000000   1.000000
   49        6.164361      6.164362   1.000000   1.000000
   50        6.164361      6.164362   1.000000   1.000000
   51        6.164392      6.164392   1.000000   1.000000
   52        6.164392      6.164392   1.000000   1.000000
   53        6.164393      6.164394   1.000000   1.000000
   54        6.164393      6.164394   1.000000   1.000000
   55        7.104577      7.104581   1.000000   1.000000
   56        7.104577      7.104581   1.000000   1.000000
   57        7.215331      7.215337   1.000000   1.000000
   58        7.215331      7.215337   1.000000   1.000000
   59        7.215418      7.215424   1.000000   1.000000
   60        7.215418      7.215424   1.000000   1.000000
   61        9.307713      9.307717   1.000000   1.000000
   62        9.307713      9.307717   1.000000   1.000000
   63        9.307804      9.307809   1.000000   1.000000
   64        9.307804      9.307809   1.000000   1.000000
   65       14.764201     14.764195   0.000000   0.000000
   66       14.764201     14.764195   0.000000   0.000000
   67       14.764229     14.764224   0.000000   0.000000
   68       14.764229     14.764224   0.000000   0.000000
   69       14.764232     14.764227   0.000000   0.000000
   70       14.764232     14.764227   0.000000   0.000000
   71       15.653488     15.653488   0.000000   0.000000
   72       15.653488     15.653488   0.000000   0.000000
   73       15.653578     15.653578   0.000000   0.000000
   74       15.653578     15.653578   0.000000   0.000000
   75       16.374937     16.374945   0.000000   0.000000
   76       16.374937     16.374945   0.000000   0.000000
   77       16.374970     16.374978   0.000000   0.000000
   78       16.374970     16.374978   0.000000   0.000000
   79       16.374971     16.374979   0.000000   0.000000
   80       16.374971     16.374979   0.000000   0.000000
   81       16.466089     16.466093   0.000000   0.000000
   82       16.466089     16.466093   0.000000   0.000000
   83       17.354176     17.354171   0.000000   0.000000
   84       17.354176     17.354171   0.000000   0.000000
   85       17.354213     17.354208   0.000000   0.000000
   86       17.354213     17.354208   0.000000   0.000000
   87       17.354214     17.354209   0.000000   0.000000
   88       17.354214     17.354209   0.000000   0.000000
   89       17.895213     17.895218   0.000000   0.000000
   90       17.895213     17.895218   0.000000   0.000000
   91       18.717570     18.717565   0.000000   0.000000
   92       18.717570     18.717565   0.000000   0.000000
   93       18.717679     18.717674   0.000000   0.000000
   94       18.717679     18.717674   0.000000   0.000000
   95       19.512417     19.512427   0.000000   0.000000
   96       19.512417     19.512427   0.000000   0.000000
   97       19.512418     19.512428   0.000000   0.000000
   98       19.512418     19.512428   0.000000   0.000000
   99       19.512425     19.512436   0.000000   0.000000
  100       19.512425     19.512436   0.000000   0.000000
  101       19.703876     19.703883   0.000000   0.000000
  102       19.703876     19.703883   0.000000   0.000000
  103       19.703877     19.703883   0.000000   0.000000
  104       19.703877     19.703883   0.000000   0.000000
  105       19.703934     19.703941   0.000000   0.000000
  106       19.703934     19.703941   0.000000   0.000000
  107       22.919360     22.919363   0.000000   0.000000
  108       22.919363     22.919365   0.000000   0.000000
  109       22.919406     22.919409   0.000000   0.000000
  110       22.919406     22.919410   0.000000   0.000000
  111       22.919407     22.919411   0.000000   0.000000
  112       22.919410     22.919433   0.000000   0.000000
 
  0.5000000E+00  0.1208938E-14  0.5000000E+00  0.3750000E+00
    1       -9.795448     -9.795447   1.000000   1.000000
    2       -9.795448     -9.795447   1.000000   1.000000
    3       -9.795448     -9.795447   1.000000   1.000000
    4       -9.795448     -9.795447   1.000000   1.000000
    5       -6.888059     -6.888057   1.000000   1.000000
    6       -6.888059     -6.888057   1.000000   1.000000
    7       -6.888059     -6.888057   1.000000   1.000000
    8       -6.888059     -6.888057   1.000000   1.000000
    9       -6.616603     -6.616603   1.000000   1.000000
   10       -6.616603     -6.616603   1.000000   1.000000
   11       -6.616603     -6.616603   1.000000   1.000000
   12       -6.616603     -6.616603   1.000000   1.000000
   13       -3.911065     -3.911064   1.000000   1.000000
   14       -3.911065     -3.911064   1.000000   1.000000
   15       -3.911065     -3.911064   1.000000   1.000000
   16       -3.911065     -3.911064   1.000000   1.000000
   17       -1.816559     -1.816556   1.000000   1.000000
   18       -1.816559     -1.816556   1.000000   1.000000
   19       -1.816559     -1.816556   1.000000   1.000000
   20       -1.816559     -1.816556   1.000000   1.000000
   21       -0.003979     -0.003974   1.000000   1.000000
   22       -0.003979     -0.003974   1.000000   1.000000
   23       -0.003979     -0.003974   1.000000   1.000000
   24       -0.003979     -0.003974   1.000000   1.000000
   25        0.685465      0.685464   1.000000   1.000000
   26        0.685465      0.685464   1.000000   1.000000
   27        0.685465      0.685464   1.000000   1.000000
   28        0.685465      0.685464   1.000000   1.000000
   29        1.130321      1.130321   1.000000   1.000000
   30        1.130321      1.130321   1.000000   1.000000
   31        1.130321      1.130321   1.000000   1.000000
   32        1.130321      1.130321   1.000000   1.000000
   33        2.138357      2.138360   1.000000   1.000000
   34        2.138357      2.138360   1.000000   1.000000
   35        2.138357      2.138360   1.000000   1.000000
   36        2.138357      2.138360   1.000000   1.000000
   37        2.621203      2.621207   1.000000   1.000000
   38        2.621203      2.621207   1.000000   1.000000
   39        2.621203      2.621207   1.000000   1.000000
   40        2.621203      2.621207   1.000000   1.000000
   41        3.664831      3.664828   1.000000   1.000000
   42        3.664831      3.664828   1.000000   1.000000
   43        3.664831      3.664828   1.000000   1.000000
   44        3.664831      3.664828   1.000000   1.000000
   45        4.358509      4.358510   1.000000   1.000000
   46        4.358509      4.358510   1.000000   1.000000
   47        4.358509      4.358510   1.000000   1.000000
   48        4.358509      4.358510   1.000000   1.000000
   49        5.212894      5.212897   1.000000   1.000000
   50        5.212894      5.212897   1.000000   1.000000
   51        5.212894      5.212897   1.000000   1.000000
   52        5.212894      5.212897   1.000000   1.000000
   53        5.788232      5.788237   1.000000   1.000000
   54        5.788232      5.788237   1.000000   1.000000
   55        5.788232      5.788237   1.000000   1.000000
   56        5.788232      5.788237   1.000000   1.000000
   57        6.920292      6.920295   1.000000   1.000000
   58        6.920292      6.920295   1.000000   1.000000
   59        6.920292      6.920295   1.000000   1.000000
   60        6.920292      6.920295   1.000000   1.000000
   61        7.435812      7.435814   1.000000   1.000000
   62        7.435812      7.435814   1.000000   1.000000
   63        7.435812      7.435814   1.000000   1.000000
   64        7.435812      7.435814   1.000000   1.000000
   65       14.889368     14.889368   0.000000   0.000000
   66       14.889368     14.889368   0.000000   0.000000
   67       14.889368     14.889368   0.000000   0.000000
   68       14.889368     14.889368   0.000000   0.000000
   69       15.960752     15.960761   0.000000   0.000000
   70       15.960752     15.960761   0.000000   0.000000
   71       15.960752     15.960761   0.000000   0.000000
   72       15.960752     15.960761   0.000000   0.000000
   73       16.794856     16.794855   0.000000   0.000000
   74       16.794856     16.794855   0.000000   0.000000
   75       16.794856     16.794855   0.000000   0.000000
   76       16.794856     16.794855   0.000000   0.000000
   77       17.586737     17.586745   0.000000   0.000000
   78       17.586737     17.586745   0.000000   0.000000
   79       17.586737     17.586745   0.000000   0.000000
   80       17.586737     17.586745   0.000000   0.000000
   81       18.342733     18.342739   0.000000   0.000000
   82       18.342733     18.342739   0.000000   0.000000
   83       18.342733     18.342739   0.000000   0.000000
   84       18.342733     18.342739   0.000000   0.000000
   85       18.591406     18.591407   0.000000   0.000000
   86       18.591406     18.591407   0.000000   0.000000
   87       18.591406     18.591407   0.000000   0.000000
   88       18.591406     18.591407   0.000000   0.000000
   89       20.213506     20.213505   0.000000   0.000000
   90       20.213506     20.213505   0.000000   0.000000
   91       20.213506     20.213505   0.000000   0.000000
   92       20.213506     20.213505   0.000000   0.000000
   93       20.466865     20.466871   0.000000   0.000000
   94       20.466865     20.466871   0.000000   0.000000
   95       20.466865     20.466871   0.000000   0.000000
   96       20.466865     20.466871   0.000000   0.000000
   97       20.844197     20.844202   0.000000   0.000000
   98       20.844197     20.844202   0.000000   0.000000
   99       20.844197     20.844202   0.000000   0.000000
  100       20.844197     20.844202   0.000000   0.000000
  101       21.376560     21.376566   0.000000   0.000000
  102       21.376560     21.376566   0.000000   0.000000
  103       21.376560     21.376566   0.000000   0.000000
  104       21.376560     21.376566   0.000000   0.000000
  105       22.309722     22.309723   0.000000   0.000000
  106       22.309722     22.309723   0.000000   0.000000
  107       22.309722     22.309723   0.000000   0.000000
  108       22.309722     22.309723   0.000000   0.000000
  109       22.956047     22.956050   0.000000   0.000000
  110       22.956049     22.956051   0.000000   0.000000
  111       22.956056     22.956061   0.000000   0.000000
  112       22.956095     22.956076   0.000000   0.000000
