  32   32
1 1
    44.529358956279999     0.000000000000000    -0.000000000000000
     0.000000000000000    44.529348867039992    -0.000000000000000
    -0.000000000000000    -0.000000000000000    42.855406785420001
1 2
    -6.342339606860000     0.000000000000000    -0.000000000000000
     0.000000000000000     2.207442956210000    -1.324250824870000
    -0.000000000000000    -1.324250824870000     1.264133007340000
1 3
     0.069997705800000     3.702164222540000     1.146835022660000
     3.702164222540000    -4.204892915130000     0.662125352380000
     1.146835022660000     0.662125352380000     1.264133007340000
1 4
     0.069997705800000    -3.702164222540000    -1.146835022660000
    -3.702164222540000    -4.204892915130000     0.662125352380000
    -1.146835022660000     0.662125352380000     1.264133007340000
1 5
    -0.108844282550000    -0.000000000000000     0.000000000000000
    -0.000000000000000    -0.108844282550000     0.000000000000000
     0.000000000000000     0.000000000000000     0.015035009470000
1 6
     0.127387464900000    -0.000000000000000    -0.000000000000000
    -0.000000000000000    -0.072954333560000    -0.082040775170000
    -0.000000000000000    -0.082040775170000    -0.067531607280000
1 7
    -0.022868944000000    -0.086750528490000     0.071049388960000
    -0.086750528490000     0.077301955230000     0.041020327530000
     0.071049388960000     0.041020327530000    -0.067531607280000
1 8
    -0.022868944000000     0.086750528490000    -0.071049388960000
     0.086750528490000     0.077301955230000     0.041020327530000
    -0.071049388960000     0.041020327530000    -0.067531607280000
1 9
     0.112926941560000    -0.108211663180000     2.327049455090000
    -0.108211663180000    -0.012025172980000    -1.343522474370000
     0.998885326310000    -0.576706603570000    -1.799272182330000
1 10
     0.112926941560000     0.108211663180000    -2.327049455090000
     0.108211663180000    -0.012025172980000    -1.343522474370000
    -0.998885326310000    -0.576706603570000    -1.799272182330000
1 11
    -0.074501230250000     0.000000000000000     0.000000000000000
     0.000000000000000     0.175402998830000     2.687044948740000
     0.000000000000000     1.153413327250000    -1.799272182330000
1 12
     0.009572646890000     0.000000000000000     0.000000000000000
     0.000000000000000     0.009572646890000    -0.000000000000000
    -0.000000000000000    -0.000000000000000    -0.146998425150000
1 13
     0.112926941560000    -0.108211663180000    -0.998885326310000
    -0.108211663180000    -0.012025172980000     0.576706603570000
    -2.327049455090000     1.343522474370000    -1.799272182330000
1 14
     0.112926941560000     0.108211663180000     0.998885326310000
     0.108211663180000    -0.012025172980000     0.576706603570000
     2.327049455090000     1.343522474370000    -1.799272182330000
1 15
    -0.074501230250000     0.000000000000000    -0.000000000000000
     0.000000000000000     0.175402998830000    -1.153413327250000
    -0.000000000000000    -2.687044948740000    -1.799272182330000
1 16
     0.009572646890000     0.000000000000000     0.000000000000000
     0.000000000000000     0.009572646890000    -0.000000000000000
    -0.000000000000000    -0.000000000000000    -0.146998425150000
1 17
    -0.332430248650000     0.244972392370000    -0.015415157620000
     0.244972392370000    -0.049560508860000     0.008899910780000
    -0.015415157620000     0.008899910780000     0.170276223590000
1 18
    -0.332430248650000    -0.244972392370000     0.015415157620000
    -0.244972392370000    -0.049560508860000     0.008899910780000
     0.015415157620000     0.008899910780000     0.170276223590000
1 19
     0.091874300980000    -0.000000000000000    -0.000000000000000
    -0.000000000000000    -0.473865058490000    -0.017799821560000
    -0.000000000000000    -0.017799821560000     0.170276223590000
1 20
    -0.011564070690000    -0.000000000000000     0.000000000000000
    -0.000000000000000    -0.011564070690000     0.000000000000000
     0.000000000000000     0.000000000000000    -0.108252380470000
1 21
   -12.544723678639999     3.021712726580000    -2.088384879590000
     3.021712726580000    -9.055547996789999     1.205729519840000
    -2.088384879590000     1.205729519840000    -7.699637977569999
1 22
   -12.544723678639999    -3.021712726580000     2.088384879590000
    -3.021712726580000    -9.055547996789999     1.205729519840000
     2.088384879590000     1.205729519840000    -7.699637977569999
1 23
    -7.310963098559998    -0.000000000000000    -0.000000000000000
    -0.000000000000000   -14.289307255659999    -2.411458919570000
    -0.000000000000000    -2.411458919570000    -7.699637977569999
1 24
     0.636654825780000     0.000000000000000     0.000000000000000
     0.000000000000000     0.636654705670000    -0.000000000000000
     0.000000000000000    -0.000000000000000     0.011732705130000
1 25
    -6.822333758539999    -0.000000000000000    -0.000000000000000
    -0.000000000000000    -6.822332197110000     0.000000000000000
     0.000000000000000     0.000000000000000   -11.331824432570000
1 26
     0.281070371880000     0.000000000000000     0.000000000000000
     0.000000000000000     0.123099537900000     0.041116175310000
    -0.000000000000000    -0.041116175310000     0.078753244360000
1 27
     0.162592306450000    -0.068403365660000    -0.035607570380000
    -0.068403365660000     0.241577603330000    -0.020558027600000
     0.035607570380000     0.020558027600000     0.078753244360000
1 28
     0.162592306450000     0.068403365660000     0.035607570380000
     0.068403365660000     0.241577603330000    -0.020558027600000
    -0.035607570380000     0.020558027600000     0.078753244360000
1 29
     0.239162191230000     0.000000000000000    -0.000000000000000
     0.000000000000000     0.239162071120000     0.000000000000000
     0.000000000000000     0.000000000000000    -0.064769797940000
1 30
    -0.144975292310000    -0.000000000000000    -0.000000000000000
    -0.000000000000000    -0.052656944660000    -0.185623519060000
     0.000000000000000     0.185623519060000    -0.508558831990000
1 31
    -0.075736561600000     0.039975010200000     0.160754743560000
     0.039975010200000    -0.121895675370000     0.092811759530000
    -0.160754743560000    -0.092811759530000    -0.508558831990000
1 32
    -0.075736561600000    -0.039975010200000    -0.160754743560000
    -0.039975010200000    -0.121895675370000     0.092811759530000
     0.160754743560000    -0.092811759530000    -0.508558831990000
2 1
    -6.342339606860000     0.000000000000000    -0.000000000000000
     0.000000000000000     2.207442956210000    -1.324250824870000
    -0.000000000000000    -1.324250824870000     1.264133007340000
2 2
    44.529358956279999     0.000000000000000    -0.000000000000000
     0.000000000000000    44.529348867039992    -0.000000000000000
    -0.000000000000000    -0.000000000000000    42.855406785420001
2 3
     0.069997705800000    -3.702164222540000    -1.146835022660000
    -3.702164222540000    -4.204892915130000     0.662125352380000
    -1.146835022660000     0.662125352380000     1.264133007340000
2 4
     0.069997705800000     3.702164222540000     1.146835022660000
     3.702164222540000    -4.204892915130000     0.662125352380000
     1.146835022660000     0.662125352380000     1.264133007340000
2 5
     0.127387464900000    -0.000000000000000    -0.000000000000000
    -0.000000000000000    -0.072954333560000    -0.082040775170000
    -0.000000000000000    -0.082040775170000    -0.067531607280000
2 6
    -0.108844282550000    -0.000000000000000     0.000000000000000
    -0.000000000000000    -0.108844282550000     0.000000000000000
     0.000000000000000     0.000000000000000     0.015035009470000
2 7
    -0.022868944000000     0.086750528490000    -0.071049388960000
     0.086750528490000     0.077301955230000     0.041020327530000
    -0.071049388960000     0.041020327530000    -0.067531607280000
2 8
    -0.022868944000000    -0.086750528490000     0.071049388960000
    -0.086750528490000     0.077301955230000     0.041020327530000
     0.071049388960000     0.041020327530000    -0.067531607280000
2 9
     0.112926941560000     0.108211663180000    -2.327049455090000
     0.108211663180000    -0.012025172980000    -1.343522474370000
    -0.998885326310000    -0.576706603570000    -1.799272182330000
2 10
     0.112926941560000    -0.108211663180000     2.327049455090000
    -0.108211663180000    -0.012025172980000    -1.343522474370000
     0.998885326310000    -0.576706603570000    -1.799272182330000
2 11
     0.009572646890000     0.000000000000000     0.000000000000000
     0.000000000000000     0.009572646890000    -0.000000000000000
    -0.000000000000000    -0.000000000000000    -0.146998425150000
2 12
    -0.074501230250000     0.000000000000000     0.000000000000000
     0.000000000000000     0.175402998830000     2.687044948740000
     0.000000000000000     1.153413327250000    -1.799272182330000
2 13
     0.112926941560000     0.108211663180000     0.998885326310000
     0.108211663180000    -0.012025172980000     0.576706603570000
     2.327049455090000     1.343522474370000    -1.799272182330000
2 14
     0.112926941560000    -0.108211663180000    -0.998885326310000
    -0.108211663180000    -0.012025172980000     0.576706603570000
    -2.327049455090000     1.343522474370000    -1.799272182330000
2 15
     0.009572646890000     0.000000000000000     0.000000000000000
     0.000000000000000     0.009572646890000    -0.000000000000000
    -0.000000000000000    -0.000000000000000    -0.146998425150000
2 16
    -0.074501230250000     0.000000000000000    -0.000000000000000
     0.000000000000000     0.175402998830000    -1.153413327250000
    -0.000000000000000    -2.687044948740000    -1.799272182330000
2 17
    -0.332430248650000    -0.244972392370000     0.015415157620000
    -0.244972392370000    -0.049560508860000     0.008899910780000
     0.015415157620000     0.008899910780000     0.170276223590000
2 18
    -0.332430248650000     0.244972392370000    -0.015415157620000
     0.244972392370000    -0.049560508860000     0.008899910780000
    -0.015415157620000     0.008899910780000     0.170276223590000
2 19
    -0.011564070690000    -0.000000000000000     0.000000000000000
    -0.000000000000000    -0.011564070690000     0.000000000000000
     0.000000000000000     0.000000000000000    -0.108252380470000
2 20
     0.091874300980000    -0.000000000000000    -0.000000000000000
    -0.000000000000000    -0.473865058490000    -0.017799821560000
    -0.000000000000000    -0.017799821560000     0.170276223590000
2 21
   -12.544723678639999    -3.021712726580000     2.088384879590000
    -3.021712726580000    -9.055547996789999     1.205729519840000
     2.088384879590000     1.205729519840000    -7.699637977569999
2 22
   -12.544723678639999     3.021712726580000    -2.088384879590000
     3.021712726580000    -9.055547996789999     1.205729519840000
    -2.088384879590000     1.205729519840000    -7.699637977569999
2 23
     0.636654825780000     0.000000000000000     0.000000000000000
     0.000000000000000     0.636654705670000    -0.000000000000000
     0.000000000000000    -0.000000000000000     0.011732705130000
2 24
    -7.310963098559998    -0.000000000000000    -0.000000000000000
    -0.000000000000000   -14.289307255659999    -2.411458919570000
    -0.000000000000000    -2.411458919570000    -7.699637977569999
2 25
     0.281070371880000     0.000000000000000     0.000000000000000
     0.000000000000000     0.123099537900000     0.041116175310000
    -0.000000000000000    -0.041116175310000     0.078753244360000
2 26
    -6.822333758539999    -0.000000000000000    -0.000000000000000
    -0.000000000000000    -6.822332197110000     0.000000000000000
     0.000000000000000     0.000000000000000   -11.331824432570000
2 27
     0.162592306450000     0.068403365660000     0.035607570380000
     0.068403365660000     0.241577603330000    -0.020558027600000
    -0.035607570380000     0.020558027600000     0.078753244360000
2 28
     0.162592306450000    -0.068403365660000    -0.035607570380000
    -0.068403365660000     0.241577603330000    -0.020558027600000
     0.035607570380000     0.020558027600000     0.078753244360000
2 29
    -0.144975292310000    -0.000000000000000    -0.000000000000000
    -0.000000000000000    -0.052656944660000    -0.185623519060000
     0.000000000000000     0.185623519060000    -0.508558831990000
2 30
     0.239162191230000     0.000000000000000    -0.000000000000000
     0.000000000000000     0.239162071120000     0.000000000000000
     0.000000000000000     0.000000000000000    -0.064769797940000
2 31
    -0.075736561600000    -0.039975010200000    -0.160754743560000
    -0.039975010200000    -0.121895675370000     0.092811759530000
     0.160754743560000    -0.092811759530000    -0.508558831990000
2 32
    -0.075736561600000     0.039975010200000     0.160754743560000
     0.039975010200000    -0.121895675370000     0.092811759530000
    -0.160754743560000    -0.092811759530000    -0.508558831990000
3 1
     0.069997705800000     3.702164222540000     1.146835022660000
     3.702164222540000    -4.204892915130000     0.662125352380000
     1.146835022660000     0.662125352380000     1.264133007340000
3 2
     0.069997705800000    -3.702164222540000    -1.146835022660000
    -3.702164222540000    -4.204892915130000     0.662125352380000
    -1.146835022660000     0.662125352380000     1.264133007340000
3 3
    44.529358956279999     0.000000000000000    -0.000000000000000
     0.000000000000000    44.529348867039992    -0.000000000000000
    -0.000000000000000    -0.000000000000000    42.855406785420001
3 4
    -6.342339606860000     0.000000000000000    -0.000000000000000
     0.000000000000000     2.207442956210000    -1.324250824870000
    -0.000000000000000    -1.324250824870000     1.264133007340000
3 5
    -0.022868944000000    -0.086750528490000     0.071049388960000
    -0.086750528490000     0.077301955230000     0.041020327530000
     0.071049388960000     0.041020327530000    -0.067531607280000
3 6
    -0.022868944000000     0.086750528490000    -0.071049388960000
     0.086750528490000     0.077301955230000     0.041020327530000
    -0.071049388960000     0.041020327530000    -0.067531607280000
3 7
    -0.108844282550000    -0.000000000000000     0.000000000000000
    -0.000000000000000    -0.108844282550000     0.000000000000000
     0.000000000000000     0.000000000000000     0.015035009470000
3 8
     0.127387464900000    -0.000000000000000    -0.000000000000000
    -0.000000000000000    -0.072954333560000    -0.082040775170000
    -0.000000000000000    -0.082040775170000    -0.067531607280000
3 9
    -0.074501230250000     0.000000000000000     0.000000000000000
     0.000000000000000     0.175402998830000     2.687044948740000
     0.000000000000000     1.153413327250000    -1.799272182330000
3 10
     0.009572646890000     0.000000000000000     0.000000000000000
     0.000000000000000     0.009572646890000    -0.000000000000000
    -0.000000000000000    -0.000000000000000    -0.146998425150000
3 11
     0.112926941560000    -0.108211663180000     2.327049455090000
    -0.108211663180000    -0.012025172980000    -1.343522474370000
     0.998885326310000    -0.576706603570000    -1.799272182330000
3 12
     0.112926941560000     0.108211663180000    -2.327049455090000
     0.108211663180000    -0.012025172980000    -1.343522474370000
    -0.998885326310000    -0.576706603570000    -1.799272182330000
3 13
    -0.074501230250000     0.000000000000000    -0.000000000000000
     0.000000000000000     0.175402998830000    -1.153413327250000
    -0.000000000000000    -2.687044948740000    -1.799272182330000
3 14
     0.009572646890000     0.000000000000000     0.000000000000000
     0.000000000000000     0.009572646890000    -0.000000000000000
    -0.000000000000000    -0.000000000000000    -0.146998425150000
3 15
     0.112926941560000    -0.108211663180000    -0.998885326310000
    -0.108211663180000    -0.012025172980000     0.576706603570000
    -2.327049455090000     1.343522474370000    -1.799272182330000
3 16
     0.112926941560000     0.108211663180000     0.998885326310000
     0.108211663180000    -0.012025172980000     0.576706603570000
     2.327049455090000     1.343522474370000    -1.799272182330000
3 17
     0.091874300980000    -0.000000000000000    -0.000000000000000
    -0.000000000000000    -0.473865058490000    -0.017799821560000
    -0.000000000000000    -0.017799821560000     0.170276223590000
3 18
    -0.011564070690000    -0.000000000000000     0.000000000000000
    -0.000000000000000    -0.011564070690000     0.000000000000000
     0.000000000000000     0.000000000000000    -0.108252380470000
3 19
    -0.332430248650000     0.244972392370000    -0.015415157620000
     0.244972392370000    -0.049560508860000     0.008899910780000
    -0.015415157620000     0.008899910780000     0.170276223590000
3 20
    -0.332430248650000    -0.244972392370000     0.015415157620000
    -0.244972392370000    -0.049560508860000     0.008899910780000
     0.015415157620000     0.008899910780000     0.170276223590000
3 21
    -7.310963098559998    -0.000000000000000    -0.000000000000000
    -0.000000000000000   -14.289307255659999    -2.411458919570000
    -0.000000000000000    -2.411458919570000    -7.699637977569999
3 22
     0.636654825780000     0.000000000000000     0.000000000000000
     0.000000000000000     0.636654705670000    -0.000000000000000
     0.000000000000000    -0.000000000000000     0.011732705130000
3 23
   -12.544723678639999     3.021712726580000    -2.088384879590000
     3.021712726580000    -9.055547996789999     1.205729519840000
    -2.088384879590000     1.205729519840000    -7.699637977569999
3 24
   -12.544723678639999    -3.021712726580000     2.088384879590000
    -3.021712726580000    -9.055547996789999     1.205729519840000
     2.088384879590000     1.205729519840000    -7.699637977569999
3 25
     0.162592306450000    -0.068403365660000    -0.035607570380000
    -0.068403365660000     0.241577603330000    -0.020558027600000
     0.035607570380000     0.020558027600000     0.078753244360000
3 26
     0.162592306450000     0.068403365660000     0.035607570380000
     0.068403365660000     0.241577603330000    -0.020558027600000
    -0.035607570380000     0.020558027600000     0.078753244360000
3 27
    -6.822333758539999    -0.000000000000000    -0.000000000000000
    -0.000000000000000    -6.822332197110000     0.000000000000000
     0.000000000000000     0.000000000000000   -11.331824432570000
3 28
     0.281070371880000     0.000000000000000     0.000000000000000
     0.000000000000000     0.123099537900000     0.041116175310000
    -0.000000000000000    -0.041116175310000     0.078753244360000
3 29
    -0.075736561600000     0.039975010200000     0.160754743560000
     0.039975010200000    -0.121895675370000     0.092811759530000
    -0.160754743560000    -0.092811759530000    -0.508558831990000
3 30
    -0.075736561600000    -0.039975010200000    -0.160754743560000
    -0.039975010200000    -0.121895675370000     0.092811759530000
     0.160754743560000    -0.092811759530000    -0.508558831990000
3 31
     0.239162191230000     0.000000000000000    -0.000000000000000
     0.000000000000000     0.239162071120000     0.000000000000000
     0.000000000000000     0.000000000000000    -0.064769797940000
3 32
    -0.144975292310000    -0.000000000000000    -0.000000000000000
    -0.000000000000000    -0.052656944660000    -0.185623519060000
     0.000000000000000     0.185623519060000    -0.508558831990000
4 1
     0.069997705800000    -3.702164222540000    -1.146835022660000
    -3.702164222540000    -4.204892915130000     0.662125352380000
    -1.146835022660000     0.662125352380000     1.264133007340000
4 2
     0.069997705800000     3.702164222540000     1.146835022660000
     3.702164222540000    -4.204892915130000     0.662125352380000
     1.146835022660000     0.662125352380000     1.264133007340000
4 3
    -6.342339606860000     0.000000000000000    -0.000000000000000
     0.000000000000000     2.207442956210000    -1.324250824870000
    -0.000000000000000    -1.324250824870000     1.264133007340000
4 4
    44.529358956279999     0.000000000000000    -0.000000000000000
     0.000000000000000    44.529348867039992    -0.000000000000000
    -0.000000000000000    -0.000000000000000    42.855406785420001
4 5
    -0.022868944000000     0.086750528490000    -0.071049388960000
     0.086750528490000     0.077301955230000     0.041020327530000
    -0.071049388960000     0.041020327530000    -0.067531607280000
4 6
    -0.022868944000000    -0.086750528490000     0.071049388960000
    -0.086750528490000     0.077301955230000     0.041020327530000
     0.071049388960000     0.041020327530000    -0.067531607280000
4 7
     0.127387464900000    -0.000000000000000    -0.000000000000000
    -0.000000000000000    -0.072954333560000    -0.082040775170000
    -0.000000000000000    -0.082040775170000    -0.067531607280000
4 8
    -0.108844282550000    -0.000000000000000     0.000000000000000
    -0.000000000000000    -0.108844282550000     0.000000000000000
     0.000000000000000     0.000000000000000     0.015035009470000
4 9
     0.009572646890000     0.000000000000000     0.000000000000000
     0.000000000000000     0.009572646890000    -0.000000000000000
    -0.000000000000000    -0.000000000000000    -0.146998425150000
4 10
    -0.074501230250000     0.000000000000000     0.000000000000000
     0.000000000000000     0.175402998830000     2.687044948740000
     0.000000000000000     1.153413327250000    -1.799272182330000
4 11
     0.112926941560000     0.108211663180000    -2.327049455090000
     0.108211663180000    -0.012025172980000    -1.343522474370000
    -0.998885326310000    -0.576706603570000    -1.799272182330000
4 12
     0.112926941560000    -0.108211663180000     2.327049455090000
    -0.108211663180000    -0.012025172980000    -1.343522474370000
     0.998885326310000    -0.576706603570000    -1.799272182330000
4 13
     0.009572646890000     0.000000000000000     0.000000000000000
     0.000000000000000     0.009572646890000    -0.000000000000000
    -0.000000000000000    -0.000000000000000    -0.146998425150000
4 14
    -0.074501230250000     0.000000000000000    -0.000000000000000
     0.000000000000000     0.175402998830000    -1.153413327250000
    -0.000000000000000    -2.687044948740000    -1.799272182330000
4 15
     0.112926941560000     0.108211663180000     0.998885326310000
     0.108211663180000    -0.012025172980000     0.576706603570000
     2.327049455090000     1.343522474370000    -1.799272182330000
4 16
     0.112926941560000    -0.108211663180000    -0.998885326310000
    -0.108211663180000    -0.012025172980000     0.576706603570000
    -2.327049455090000     1.343522474370000    -1.799272182330000
4 17
    -0.011564070690000    -0.000000000000000     0.000000000000000
    -0.000000000000000    -0.011564070690000     0.000000000000000
     0.000000000000000     0.000000000000000    -0.108252380470000
4 18
     0.091874300980000    -0.000000000000000    -0.000000000000000
    -0.000000000000000    -0.473865058490000    -0.017799821560000
    -0.000000000000000    -0.017799821560000     0.170276223590000
4 19
    -0.332430248650000    -0.244972392370000     0.015415157620000
    -0.244972392370000    -0.049560508860000     0.008899910780000
     0.015415157620000     0.008899910780000     0.170276223590000
4 20
    -0.332430248650000     0.244972392370000    -0.015415157620000
     0.244972392370000    -0.049560508860000     0.008899910780000
    -0.015415157620000     0.008899910780000     0.170276223590000
4 21
     0.636654825780000     0.000000000000000     0.000000000000000
     0.000000000000000     0.636654705670000    -0.000000000000000
     0.000000000000000    -0.000000000000000     0.011732705130000
4 22
    -7.310963098559998    -0.000000000000000    -0.000000000000000
    -0.000000000000000   -14.289307255659999    -2.411458919570000
    -0.000000000000000    -2.411458919570000    -7.699637977569999
4 23
   -12.544723678639999    -3.021712726580000     2.088384879590000
    -3.021712726580000    -9.055547996789999     1.205729519840000
     2.088384879590000     1.205729519840000    -7.699637977569999
4 24
   -12.544723678639999     3.021712726580000    -2.088384879590000
     3.021712726580000    -9.055547996789999     1.205729519840000
    -2.088384879590000     1.205729519840000    -7.699637977569999
4 25
     0.162592306450000     0.068403365660000     0.035607570380000
     0.068403365660000     0.241577603330000    -0.020558027600000
    -0.035607570380000     0.020558027600000     0.078753244360000
4 26
     0.162592306450000    -0.068403365660000    -0.035607570380000
    -0.068403365660000     0.241577603330000    -0.020558027600000
     0.035607570380000     0.020558027600000     0.078753244360000
4 27
     0.281070371880000     0.000000000000000     0.000000000000000
     0.000000000000000     0.123099537900000     0.041116175310000
    -0.000000000000000    -0.041116175310000     0.078753244360000
4 28
    -6.822333758539999    -0.000000000000000    -0.000000000000000
    -0.000000000000000    -6.822332197110000     0.000000000000000
     0.000000000000000     0.000000000000000   -11.331824432570000
4 29
    -0.075736561600000    -0.039975010200000    -0.160754743560000
    -0.039975010200000    -0.121895675370000     0.092811759530000
     0.160754743560000    -0.092811759530000    -0.508558831990000
4 30
    -0.075736561600000     0.039975010200000     0.160754743560000
     0.039975010200000    -0.121895675370000     0.092811759530000
    -0.160754743560000    -0.092811759530000    -0.508558831990000
4 31
    -0.144975292310000    -0.000000000000000    -0.000000000000000
    -0.000000000000000    -0.052656944660000    -0.185623519060000
     0.000000000000000     0.185623519060000    -0.508558831990000
4 32
     0.239162191230000     0.000000000000000    -0.000000000000000
     0.000000000000000     0.239162071120000     0.000000000000000
     0.000000000000000     0.000000000000000    -0.064769797940000
5 1
    -0.108844282550000    -0.000000000000000     0.000000000000000
    -0.000000000000000    -0.108844282550000     0.000000000000000
     0.000000000000000     0.000000000000000     0.015035009470000
5 2
     0.127387464900000    -0.000000000000000    -0.000000000000000
    -0.000000000000000    -0.072954333560000    -0.082040775170000
    -0.000000000000000    -0.082040775170000    -0.067531607280000
5 3
    -0.022868944000000    -0.086750528490000     0.071049388960000
    -0.086750528490000     0.077301955230000     0.041020327530000
     0.071049388960000     0.041020327530000    -0.067531607280000
5 4
    -0.022868944000000     0.086750528490000    -0.071049388960000
     0.086750528490000     0.077301955230000     0.041020327530000
    -0.071049388960000     0.041020327530000    -0.067531607280000
5 5
    44.529358956279999     0.000000000000000    -0.000000000000000
     0.000000000000000    44.529348867039992    -0.000000000000000
    -0.000000000000000    -0.000000000000000    42.855406785420001
5 6
    -6.342339606860000     0.000000000000000    -0.000000000000000
     0.000000000000000     2.207442956210000    -1.324250824870000
    -0.000000000000000    -1.324250824870000     1.264133007340000
5 7
     0.069997705800000     3.702164222540000     1.146835022660000
     3.702164222540000    -4.204892915130000     0.662125352380000
     1.146835022660000     0.662125352380000     1.264133007340000
5 8
     0.069997705800000    -3.702164222540000    -1.146835022660000
    -3.702164222540000    -4.204892915130000     0.662125352380000
    -1.146835022660000     0.662125352380000     1.264133007340000
5 9
     0.112926941560000    -0.108211663180000    -0.998885326310000
    -0.108211663180000    -0.012025172980000     0.576706603570000
    -2.327049455090000     1.343522474370000    -1.799272182330000
5 10
     0.112926941560000     0.108211663180000     0.998885326310000
     0.108211663180000    -0.012025172980000     0.576706603570000
     2.327049455090000     1.343522474370000    -1.799272182330000
5 11
    -0.074501230250000     0.000000000000000    -0.000000000000000
     0.000000000000000     0.175402998830000    -1.153413327250000
    -0.000000000000000    -2.687044948740000    -1.799272182330000
5 12
     0.009572646890000     0.000000000000000     0.000000000000000
     0.000000000000000     0.009572646890000    -0.000000000000000
    -0.000000000000000    -0.000000000000000    -0.146998425150000
5 13
     0.112926941560000    -0.108211663180000     2.327049455090000
    -0.108211663180000    -0.012025172980000    -1.343522474370000
     0.998885326310000    -0.576706603570000    -1.799272182330000
5 14
     0.112926941560000     0.108211663180000    -2.327049455090000
     0.108211663180000    -0.012025172980000    -1.343522474370000
    -0.998885326310000    -0.576706603570000    -1.799272182330000
5 15
    -0.074501230250000     0.000000000000000     0.000000000000000
     0.000000000000000     0.175402998830000     2.687044948740000
     0.000000000000000     1.153413327250000    -1.799272182330000
5 16
     0.009572646890000     0.000000000000000     0.000000000000000
     0.000000000000000     0.009572646890000    -0.000000000000000
    -0.000000000000000    -0.000000000000000    -0.146998425150000
5 17
   -12.544723678639999     3.021712726580000    -2.088384879590000
     3.021712726580000    -9.055547996789999     1.205729519840000
    -2.088384879590000     1.205729519840000    -7.699637977569999
5 18
   -12.544723678639999    -3.021712726580000     2.088384879590000
    -3.021712726580000    -9.055547996789999     1.205729519840000