       N       E                     dE             d eps       ncg     rms          rms(c)
DAV:   1    -0.100124778865E+03   -0.10012E+03   -0.59969E+04  1792   0.924E+02
DAV:   2    -0.669352945161E+03   -0.56923E+03   -0.54129E+03  2240   0.237E+02
DAV:   3    -0.695256145810E+03   -0.25903E+02   -0.25614E+02  2496   0.453E+01
DAV:   4    -0.695772536577E+03   -0.51639E+00   -0.51449E+00  2416   0.645E+00
DAV:   5    -0.695784696089E+03   -0.12160E-01   -0.12149E-01  2432   0.979E-01    0.914E+01
RMM:   6    -0.397727581950E+03    0.29806E+03   -0.17765E+02  1792   0.322E+01    0.488E+01
RMM:   7    -0.288347451909E+03    0.10938E+03   -0.26582E+02  1792   0.383E+01    0.624E+00
RMM:   8    -0.288734046243E+03   -0.38659E+00   -0.16720E+00  1792   0.411E+00    0.218E+00
RMM:   9    -0.288967545824E+03   -0.23350E+00   -0.36373E-01  1792   0.220E+00    0.678E-01
RMM:  10    -0.288987812062E+03   -0.20266E-01   -0.60785E-02  1792   0.790E-01    0.171E-01
RMM:  11    -0.288988597565E+03   -0.78550E-03   -0.17767E-03  1792   0.134E-01    0.139E-01
RMM:  12    -0.288988433603E+03    0.16396E-03   -0.36317E-04  1792   0.601E-02    0.377E-02
RMM:  13    -0.288988405271E+03    0.28332E-04   -0.11880E-04  1792   0.304E-02    0.314E-03
RMM:  14    -0.288988406113E+03   -0.84170E-06   -0.27194E-06  1423   0.522E-03
   1 F= -.28898841E+03 E0= -.28898841E+03  d E =0.000000E+00  mag=    -0.0000
 Linear response reoptimize wavefunctions
DAV:   1    -0.288988407277E+03   -0.11646E-05   -0.64056E-07  1904   0.263E-03
DAV:   2    -0.288988407279E+03   -0.15727E-08   -0.17155E-08  1664   0.327E-04
DAV:   3    -0.288988407279E+03   -0.27427E-09   -0.42067E-10  1536   0.664E-05
 Linear response DOF=            2
 Linear response progress:
  Degree of freedom:   1/  2
       N       E                     dE             d eps       ncg     rms          rms(c)
RMM:   1    -0.143904968718E+00   -0.14390E+00    0.23146E-02 10065   0.864E-01
RMM:   2    -0.124445941832E+00    0.19459E-01   -0.58728E-03  5892   0.197E-01    0.182E-01
RMM:   3    -0.124396691478E+00    0.49250E-04   -0.75366E-04  6092   0.544E-02    0.931E-02
RMM:   4    -0.124780642334E+00   -0.38395E-03   -0.18691E-04  5903   0.296E-02    0.288E-02
RMM:   5    -0.124918080512E+00   -0.13744E-03   -0.13959E-05  6177   0.901E-03    0.703E-03
RMM:   6    -0.124888905229E+00    0.29175E-04   -0.20731E-06  6154   0.278E-03    0.914E-04
RMM:   7    -0.124884023049E+00    0.48822E-05    0.10932E-07  6583   0.427E-04    0.326E-04
RMM:   8    -0.124883223301E+00    0.79975E-06    0.63087E-08  6955   0.179E-04    0.130E-04
 Linear response progress:
  Degree of freedom:   2/  2
       N       E                     dE             d eps       ncg     rms          rms(c)
RMM:   1    -0.144239680425E+00   -0.14424E+00    0.25347E-02  5081   0.830E-01
RMM:   2    -0.125572936539E+00    0.18667E-01   -0.55874E-03  2883   0.187E-01    0.181E-01
RMM:   3    -0.125517712439E+00    0.55224E-04   -0.67329E-04  2938   0.538E-02    0.922E-02
RMM:   4    -0.125875560144E+00   -0.35785E-03   -0.18520E-04  2828   0.301E-02    0.277E-02
RMM:   5    -0.125986963725E+00   -0.11140E-03   -0.12266E-05  3020   0.877E-03    0.718E-03
RMM:   6    -0.125957838796E+00    0.29125E-04    0.12774E-07  3025   0.285E-03    0.146E-03
RMM:   7    -0.125950563585E+00    0.72752E-05    0.25391E-06  3138   0.640E-04    0.399E-04
RMM:   8    -0.125948421998E+00    0.21416E-05    0.37650E-06  3300   0.231E-04    0.155E-04
RMM:   9    -0.125948207501E+00    0.21450E-06    0.52101E-06  3482   0.115E-04    0.677E-05
 Linear response finished
