 vasp.5.4.4.18Apr17-6-g9f103f2a35 (build Jul  5 2023 12:24:19) complex           
 executed on NVIDIA22.7_CrayMPICH date 2023.10.17  09:01:11
 running on   16 total cores
 distrk:  each k-point on   16 cores,    1 groups
 distr:  one band on NCORES_PER_BAND=   1 cores,   16 groups


--------------------------------------------------------------------------------------------------------


 INCAR:
 POTCAR:   PAW_PBE C 08Apr2002                    

 ----------------------------------------------------------------------------- 
|                                                                             |
|           W    W    AA    RRRRR   N    N  II  N    N   GGGG   !!!           |
|           W    W   A  A   R    R  NN   N  II  NN   N  G    G  !!!           |
|           W    W  A    A  R    R  N N  N  II  N N  N  G       !!!           |
|           W WW W  AAAAAA  RRRRR   N  N N  II  N  N N  G  GGG   !            |
|           WW  WW  A    A  R   R   N   NN  II  N   NN  G    G                |
|           W    W  A    A  R    R  N    N  II  N    N   GGGG   !!!           |
|                                                                             |
|      For optimal performance we recommend to set                            |
|        NCORE= 4 - approx SQRT( number of cores)                             |
|      NCORE specifies how many cores store one orbital (NPAR=cpu/NCORE).     |
|      This setting can  greatly improve the performance of VASP for DFT.     |
|      The default,   NCORE=1            might be grossly inefficient         |
|      on modern multi-core architectures or massively parallel machines.     |
|      Do your own testing !!!!                                               |
|      Unfortunately you need to use the default for GW and RPA calculations. |
|      (for HF NCORE is supported but not extensively tested yet)             |
|                                                                             |
 ----------------------------------------------------------------------------- 

 POTCAR:   PAW_PBE C 08Apr2002                    
  local pseudopotential read in
  atomic valenz-charges read in
  non local Contribution for L=            0  read in
    real space projection operators read in
  non local Contribution for L=            0  read in
    real space projection operators read in
  non local Contribution for L=            1  read in
    real space projection operators read in
  non local Contribution for L=            1  read in
    real space projection operators read in
    PAW grid and wavefunctions read in
 
   number of l-projection  operators is LMAX  =            4
   number of lm-projection operators is LMMAX =            8
 

 ----------------------------------------------------------------------------- 
|                                                                             |
|  ADVICE TO THIS USER RUNNING 'VASP/VAMP'   (HEAR YOUR MASTER'S VOICE ...):  |
|                                                                             |
|      You have a (more or less) 'large supercell' and for larger cells       |
|      it might be more efficient to use real space projection operators      |
|      So try LREAL= Auto  in the INCAR   file.                               |
|      Mind: If you want to do a very accurate calculations keep the          |
|      reciprocal projection scheme          (i.e. LREAL=.FALSE.)             |
|                                                                             |
 ----------------------------------------------------------------------------- 

 PAW_PBE C 08Apr2002                    :
 energy of atom  1       EATOM= -147.1560
 kinetic energy error for atom=    0.0288 (will be added to EATOM!!)
 
 
 POSCAR: generated by phonopy                    
  positions in direct lattice
  No initial velocities read in
 exchange correlation table for  LEXCH =        8
   RHO(1)=    0.500       N(1)  =     2000
   RHO(2)=  100.500       N(2)  =     4000
 


--------------------------------------------------------------------------------------------------------


 ion  position               nearest neighbor table
   1  0.167  0.333  0.469-  23 1.54  22 1.54  21 1.54  25 1.57
   2  0.667  0.333  0.469-  24 1.54  21 1.54  22 1.54  26 1.57
   3  0.167  0.833  0.469-  21 1.54  24 1.54  23 1.54  27 1.57
   4  0.667  0.833  0.469-  22 1.54  23 1.54  24 1.54  28 1.57
   5  0.167  0.333  0.969-  19 1.54  18 1.54  17 1.54  29 1.57
   6  0.667  0.333  0.969-  20 1.54  17 1.54  18 1.54  30 1.57
   7  0.167  0.833  0.969-  17 1.54  20 1.54  19 1.54  31 1.57
   8  0.667  0.833  0.969-  18 1.54  19 1.54  20 1.54  32 1.57
   9  0.333  0.167  0.219-  27 1.54  26 1.54  25 1.54  17 1.57
  10  0.833  0.167  0.219-  28 1.54  25 1.54  26 1.54  18 1.57
  11  0.333  0.667  0.219-  25 1.54  28 1.54  27 1.54  19 1.57
  12  0.833  0.667  0.219-  26 1.54  27 1.54  28 1.54  20 1.57
  13  0.333  0.167  0.719-  31 1.54  30 1.54  29 1.54  21 1.57
  14  0.833  0.167  0.719-  32 1.54  29 1.54  30 1.54  22 1.57
  15  0.333  0.667  0.719-  29 1.54  32 1.54  31 1.54  23 1.57
  16  0.833  0.667  0.719-  30 1.54  31 1.54  32 1.54  24 1.57
  17  0.333  0.167  0.031-   7 1.54   6 1.54   5 1.54   9 1.57
  18  0.833  0.167  0.031-   8 1.54   5 1.54   6 1.54  10 1.57
  19  0.333  0.667  0.031-   5 1.54   8 1.54   7 1.54  11 1.57
  20  0.833  0.667  0.031-   6 1.54   7 1.54   8 1.54  12 1.57
  21  0.333  0.167  0.531-   3 1.54   2 1.54   1 1.54  13 1.57
  22  0.833  0.167  0.531-   4 1.54   1 1.54   2 1.54  14 1.57
  23  0.333  0.667  0.531-   1 1.54   4 1.54   3 1.54  15 1.57
  24  0.833  0.667  0.531-   2 1.54   3 1.54   4 1.54  16 1.57
  25  0.167  0.333  0.281-  11 1.54  10 1.54   9 1.54   1 1.57
  26  0.667  0.333  0.281-  12 1.54   9 1.54  10 1.54   2 1.57
  27  0.167  0.833  0.281-   9 1.54  12 1.54  11 1.54   3 1.57
  28  0.667  0.833  0.281-  10 1.54  11 1.54  12 1.54   4 1.57
  29  0.167  0.333  0.781-  15 1.54  14 1.54  13 1.54   5 1.57
  30  0.667  0.333  0.781-  16 1.54  13 1.54  14 1.54   6 1.57
  31  0.167  0.833  0.781-  13 1.54  16 1.54  15 1.54   7 1.57
  32  0.667  0.833  0.781-  14 1.54  15 1.54  16 1.54   8 1.57
 
  LATTYP: Found a hexagonal cell.
 ALAT       =     5.0261875737
 C/A-ratio  =     1.6638463800
  
  Lattice vectors:
  
 A1 = (   5.0261880000,   0.0000000000,   0.0000000000)
 A2 = (  -2.5130940000,   4.3528060000,   0.0000000000)
 A3 = (   0.0000000000,   0.0000000000,   8.3628040000)


Analysis of symmetry for initial positions (statically):
=====================================================================
 Subroutine PRICEL returns following result:
 
  LATTYP: Found a hexagonal cell.
 ALAT       =     2.5130937869
 C/A-ratio  =     1.6638463800
  
  Lattice vectors:
  
 A1 = (   2.5130940000,   0.0000000000,   0.0000000000)
 A2 = (  -1.2565470000,   2.1764030000,   0.0000000000)
 A3 = (   0.0000000000,   0.0000000000,   4.1814020000)
 
   8 primitive cells build up your supercell.
 

 Routine SETGRP: Setting up the symmetry group for a 
 hexagonal supercell.


 Subroutine GETGRP returns: Found 24 space group operations
 (whereof 12 operations were pure point group operations)
 out of a pool of 24 trial point group operations.


The static configuration has the point symmetry D_3d.
 The point group associated with its full space group is D_6h.


Analysis of symmetry for dynamics (positions and initial velocities):
=====================================================================
 Subroutine PRICEL returns following result:
 
  LATTYP: Found a hexagonal cell.
 ALAT       =     2.5130937869
 C/A-ratio  =     1.6638463800
  
  Lattice vectors:
  
 A1 = (   2.5130940000,   0.0000000000,   0.0000000000)
 A2 = (  -1.2565470000,   2.1764030000,   0.0000000000)
 A3 = (   0.0000000000,   0.0000000000,   4.1814020000)
 
   8 primitive cells build up your supercell.
 

 Routine SETGRP: Setting up the symmetry group for a 
 hexagonal supercell.


 Subroutine GETGRP returns: Found 24 space group operations
 (whereof 12 operations were pure point group operations)
 out of a pool of 24 trial point group operations.


The dynamic configuration has the point symmetry D_3d.
 The point group associated with its full space group is D_6h.


Analysis of structural, dynamic, and magnetic symmetry:
=====================================================================
 Subroutine PRICEL returns following result:
 
  LATTYP: Found a hexagonal cell.
 ALAT       =     2.5130937869
 C/A-ratio  =     1.6638463800
  
  Lattice vectors:
  
 A1 = (   2.5130940000,   0.0000000000,   0.0000000000)
 A2 = (  -1.2565470000,   2.1764030000,   0.0000000000)
 A3 = (   0.0000000000,   0.0000000000,   4.1814020000)
 
   8 primitive cells build up your supercell.
 

 Routine SETGRP: Setting up the symmetry group for a 
 hexagonal supercell.


 Subroutine GETGRP returns: Found 24 space group operations
 (whereof 12 operations were pure point group operations)
 out of a pool of 24 trial point group operations.


The magnetic configuration has the point symmetry D_3d.
 The point group associated with its full space group is D_6h.


 Subroutine INISYM returns: Found 24 space group operations
 (whereof 12 operations are pure point group operations),
 and found     8 'primitive' translations

 
 
 KPOINTS: kpt_density=500                         

Automatic generation of k-mesh.
Space group operators:
 irot       det(A)        alpha          n_x          n_y          n_z        tau_x        tau_y        tau_z
    1     1.000000     0.000000     1.000000     0.000000     0.000000     0.000000     0.000000     0.000000
    2    -1.000000     0.000000     1.000000     0.000000     0.000000     0.000000     0.000000     0.000000
    3     1.000000   120.000000     0.000000     0.000000    -1.000000     0.000000     0.000000     0.000000
    4    -1.000000   120.000000     0.000000     0.000000    -1.000000     0.000000     0.000000     0.000000
    5     1.000000   120.000000     0.000000     0.000000     1.000000     0.000000     0.000000     0.000000
    6    -1.000000   120.000000     0.000000     0.000000     1.000000     0.000000     0.000000     0.000000
    7     1.000000   180.000000     1.000000     0.000000     0.000000     0.000000     0.000000     0.000000
    8    -1.000000   180.000000     1.000000     0.000000     0.000000     0.000000     0.000000     0.000000
    9     1.000000   180.000000     0.500000    -0.866025     0.000000     0.000000     0.000000     0.000000
   10    -1.000000   180.000000     0.500000    -0.866025     0.000000     0.000000     0.000000     0.000000
   11     1.000000   180.000000    -0.500000    -0.866025     0.000000     0.000000     0.000000     0.000000
   12    -1.000000   180.000000    -0.500000    -0.866025     0.000000     0.000000     0.000000     0.000000
   13     1.000000    60.000000     0.000000     0.000000    -1.000000     0.000000     0.000000     0.250000
   14    -1.000000    60.000000     0.000000    -0.000000    -1.000000     0.000000     0.000000     0.250000
   15     1.000000   180.000000     0.000000     0.000000     1.000000     0.000000     0.000000     0.250000
   16    -1.000000   180.000000     0.000000     0.000000     1.000000     0.000000     0.000000     0.250000
   17     1.000000    60.000000     0.000000     0.000000     1.000000     0.000000     0.000001     0.250000
   18    -1.000000    60.000000     0.000000     0.000000     1.000000     0.000000     0.000001     0.250000
   19     1.000000   180.000000     0.866025    -0.500000     0.000000     0.000000     0.000000     0.250000
   20    -1.000000   180.000000     0.866025    -0.500000     0.000000     0.000000     0.000000     0.250000
   21     1.000000   180.000000     0.000000     1.000000     0.000000     0.000000     0.000000     0.250000
   22    -1.000000   180.000000     0.000000     1.000000     0.000000     0.000000     0.000000     0.250000
   23     1.000000   180.000000     0.866025     0.500000     0.000000     0.000000     0.000001     0.250000
   24    -1.000000   180.000000     0.866025     0.500000     0.000000     0.000000     0.000001     0.250000
 
 Subroutine IBZKPT returns following result:
 ===========================================
 
 Found      4 irreducible k-points:
 
 Following reciprocal coordinates:
            Coordinates               Weight
  0.000000  0.000000  0.000000      1.000000
  0.500000  0.000000  0.000000      3.000000
  0.000000  0.000000  0.500000      1.000000
  0.500000  0.000000  0.500000      3.000000
 
 Following cartesian coordinates:
            Coordinates               Weight
  0.000000  0.000000  0.000000      1.000000
  0.099479  0.057434  0.000000      3.000000
  0.000000  0.000000  0.059789      1.000000
  0.099479  0.057434  0.059789      3.000000
 
 TETIRR: Found     10 inequivalent tetrahedra from       48
 
 Subroutine IBZKPT_HF returns following result:
 ==============================================
 
 Found      8 k-points in 1st BZ
 the following      8 k-points will be used (e.g. in the exchange kernel)
 Following reciprocal coordinates:   # in IRBZ
  0.000000  0.000000  0.000000    0.12500000   1 t-inv F
  0.500000  0.000000  0.000000    0.12500000   2 t-inv F
  0.000000  0.000000  0.500000    0.12500000   3 t-inv F
  0.500000  0.000000  0.500000    0.12500000   4 t-inv F
 -0.500000  0.500000  0.000000    0.12500000   2 t-inv F
  0.000000 -0.500000  0.000000    0.12500000   2 t-inv F
 -0.500000  0.500000  0.500000    0.12500000   4 t-inv F
  0.000000 -0.500000  0.500000    0.12500000   4 t-inv F


--------------------------------------------------------------------------------------------------------




 Dimension of arrays:
   k-points           NKPTS =      4   k-points in BZ     NKDIM =      4   number of bands    NBANDS=    112
   number of dos      NEDOS =    301   number of ions     NIONS =     32
   non local maximal  LDIM  =      4   non local SUM 2l+1 LMDIM =      8
   total plane-waves  NPLWV =  72576
   max r-space proj   IRMAX =      1   max aug-charges    IRDMAX=  37644
   dimension x,y,z NGX =    36 NGY =   36 NGZ =   56
   dimension x,y,z NGXF=    72 NGYF=   72 NGZF=  112
   support grid    NGXF=   144 NGYF=  144 NGZF=  224
   ions per type =              32
   NGX,Y,Z   is equivalent  to a cutoff of  11.91, 11.91, 11.13 a.u.
   NGXF,Y,Z  is equivalent  to a cutoff of  23.81, 23.81, 22.26 a.u.

 SYSTEM =  unknown system                          
 POSCAR =  generated by phonopy                    

 Startparameter for this run:
   NWRITE =      0    write-flag & timer
   PREC   = accura    normal or accurate (medium, high low for compatibility)
   ISTART =      0    job   : 0-new  1-cont  2-samecut
   ICHARG =      0    charge: 1-file 2-atom 10-const
   ISPIN  =      2    spin polarized calculation?
   LNONCOLLINEAR =      F non collinear calculations
   LSORBIT =      F    spin-orbit coupling
   INIWAV =      1    electr: 0-lowe 1-rand  2-diag
   LASPH  =      F    aspherical Exc in radial PAW
   METAGGA=      F    non-selfconsistent MetaGGA calc.

 Electronic Relaxation 1
   ENCUT  =  400.0 eV  29.40 Ry    5.42 a.u.   8.20  8.20 13.64*2*pi/ulx,y,z
   ENINI  =  400.0     initial cutoff
   ENAUG  =  644.9 eV  augmentation charge cutoff
   NELM   =     60;   NELMIN=  2; NELMDL= -5     # of ELM steps 
   EDIFF  = 0.1E-05   stopping-criterion for ELM
   LREAL  =      F    real-space projection
   NLSPLINE    = F    spline interpolate recip. space projectors
   LCOMPAT=      F    compatible to vasp.4.4
   GGA_COMPAT  = T    GGA compatible to vasp.4.4-vasp.4.6
   LMAXPAW     = -100 max onsite density
   LMAXMIX     =    2 max onsite mixed and CHGCAR
   VOSKOWN=      0    Vosko Wilk Nusair interpolation
   ROPT   =    0.00000
 Ionic relaxation
   EDIFFG = 0.1E-03   stopping-criterion for IOM
   NSW    =      1    number of steps for IOM
   NBLOCK =      1;   KBLOCK =      1    inner block; outer block 
   IBRION =      8    ionic relax: 0-MD 1-quasi-New 2-CG
   NFREE  =      0    steps in history (QN), initial steepest desc. (CG)
   ISIF   =      3    stress and relaxation
   IWAVPR =     11    prediction:  0-non 1-charg 2-wave 3-comb
   ISYM   =      2    0-nonsym 1-usesym 2-fastsym
   LCORR  =      T    Harris-Foulkes like correction to forces

   POTIM  = 0.0150    time-step for ionic-motion
   TEIN   =    0.0    initial temperature
   TEBEG  =    0.0;   TEEND  =   0.0 temperature during run
   SMASS  =  -3.00    Nose mass-parameter (am)
   estimated Nose-frequenzy (Omega)   =  0.10E-29 period in steps =****** mass=  -0.577E-27a.u.
   SCALEE = 1.0000    scale energy and forces
   NPACO  =    256;   APACO  = 16.0  distance and # of slots for P.C.
   PSTRESS=    0.0 pullay stress

  Mass of Ions in am
   POMASS =  12.01
  Ionic Valenz
   ZVAL   =   4.00
  Atomic Wigner-Seitz radii
   RWIGS  =  -1.00
  virtual crystal weights 
   VCA    =   1.00
   NELECT =     128.0000    total number of electrons
   NUPDOWN=      -1.0000    fix difference up-down

 DOS related values:
   EMIN   =  10.00;   EMAX   =-10.00  energy-range for DOS
   EFERMI =   0.00
   ISMEAR =    -5;   SIGMA  =   0.01  broadening in eV -4-tet -1-fermi 0-gaus

 Electronic relaxation 2 (details)
   IALGO  =     68    algorithm
   LDIAG  =      T    sub-space diagonalisation (order eigenvalues)
   LSUBROT=      F    optimize rotation matrix (better conditioning)
   TURBO    =      0    0=normal 1=particle mesh
   IRESTART =      0    0=no restart 2=restart with 2 vectors
   NREBOOT  =      0    no. of reboots
   NMIN     =      0    reboot dimension
   EREF     =   0.00    reference energy to select bands
   IMIX   =      4    mixing-type and parameters
     AMIX     =   0.40;   BMIX     =  1.00
     AMIX_MAG =   1.60;   BMIX_MAG =  1.00
     AMIN     =   0.10
     WC   =   100.;   INIMIX=   1;  MIXPRE=   1;  MAXMIX= -45

 Intra band minimization:
   WEIMIN = 0.0010     energy-eigenvalue tresh-hold
   EBREAK =  0.22E-08  absolut break condition
   DEPER  =   0.30     relativ break condition  

   TIME   =   0.40     timestep for ELM

  volume/ion in A,a.u.               =       5.72        38.58
  Fermi-wavevector in a.u.,A,eV,Ry     =   1.453310  2.746357 28.736988  2.112109
  Thomas-Fermi vector in A             =   2.570591
 
 Write flags
   LWAVE        =      F    write WAVECAR
   LDOWNSAMPLE  =      F    k-point downsampling of WAVECAR
   LCHARG       =      F    write CHGCAR
   LVTOT        =      F    write LOCPOT, total local potential
   LVHAR        =      F    write LOCPOT, Hartree potential only
   LELF         =      F    write electronic localiz. function (ELF)
   LORBIT       =     11    0 simple, 1 ext, 2 COOP (PROOUT), +10 PAW based schemes


 Dipole corrections
   LMONO  =      F    monopole corrections only (constant potential shift)
   LDIPOL =      F    correct potential (dipole corrections)
   IDIPOL =      0    1-x, 2-y, 3-z, 4-all directions 
   EPSILON=  1.0000000 bulk dielectric constant

 Exchange correlation treatment:
   GGA     =    --    GGA type
   LEXCH   =     8    internal setting for exchange type
   VOSKOWN=      0    Vosko Wilk Nusair interpolation
   LHFCALC =     F    Hartree Fock is set to
   LHFONE  =     F    Hartree Fock one center treatment
   AEXX    =    0.0000 exact exchange contribution

 Linear response parameters
   LEPSILON=     F    determine dielectric tensor
   LRPA    =     F    only Hartree local field effects (RPA)
   LNABLA  =     F    use nabla operator in PAW spheres
   LVEL    =     F    velocity operator in full k-point grid
   LINTERFAST=   F  fast interpolation
   KINTER  =     0    interpolate to denser k-point grid
   CSHIFT  =0.1000    complex shift for real part using Kramers Kronig
   OMEGAMAX=  -1.0    maximum frequency
   DEG_THRESHOLD= 0.2000000E-02 threshold for treating states as degnerate
   RTIME   =   -0.100 relaxation time in fs
  (WPLASMAI=    0.000 imaginary part of plasma frequency in eV, 0.658/RTIME)
   DFIELD  = 0.0000000 0.0000000 0.0000000 field for delta impulse in time
 
 Orbital magnetization related:
   ORBITALMAG=     F  switch on orbital magnetization
   LCHIMAG   =     F  perturbation theory with respect to B field
   DQ        =  0.001000  dq finite difference perturbation B field
   LLRAUG    =     F  two centre corrections for induced B field



--------------------------------------------------------------------------------------------------------


 linear response using symmetry
 charge density and potential will be updated during run
 spin polarized calculation
 RMM-DIIS sequential band-by-band and
  variant of blocked Davidson during initial phase
 perform sub-space diagonalisation
    before iterative eigenvector-optimisation
 modified Broyden-mixing scheme, WC =      100.0
 initial mixing is a Kerker type mixing with AMIX =  0.4000 and BMIX =      1.0000
 Hartree-type preconditioning will be used
 using additional bands            48
 reciprocal scheme for non local part
 calculate Harris-corrections to forces 
   (improved forces if not selfconsistent)
 use gradient corrections 
 use of overlap-Matrix (Vanderbilt PP)
 Fermi weights with tetrahedron method with Bloechl corrections


--------------------------------------------------------------------------------------------------------


  energy-cutoff  :      400.00
  volume of cell :      182.96
      direct lattice vectors                 reciprocal lattice vectors
     5.026188000  0.000000000  0.000000000     0.198957938  0.114868432 -0.000000000
    -2.513094000  4.352806000  0.000000000     0.000000000  0.229736864  0.000000000
     0.000000000  0.000000000  8.362804000     0.000000000 -0.000000000  0.119577118

  length of vectors
     5.026188000  5.026187574  8.362804000     0.229736845  0.229736864  0.119577118


 
 k-points in units of 2pi/SCALE and weight: kpt_density=500                         
   0.00000000  0.00000000  0.00000000       0.125
   0.09947897  0.05743422  0.00000000       0.375
   0.00000000  0.00000000  0.05978856       0.125
   0.09947897  0.05743422  0.05978856       0.375
 
 k-points in reciprocal lattice and weights: kpt_density=500                         
   0.00000000  0.00000000  0.00000000       0.125
   0.50000000  0.00000000  0.00000000       0.375
   0.00000000  0.00000000  0.50000000       0.125
   0.50000000  0.00000000  0.50000000       0.375
 
 position of ions in fractional coordinates (direct lattice) 
   0.16666650  0.33333350  0.46861400
   0.66666650  0.33333350  0.46861400
   0.16666650  0.83333350  0.46861400
   0.66666650  0.83333350  0.46861400
   0.16666650  0.33333350  0.96861400
   0.66666650  0.33333350  0.96861400
   0.16666650  0.83333350  0.96861400
   0.66666650  0.83333350  0.96861400
   0.33333350  0.16666650  0.21861400
   0.83333350  0.16666650  0.21861400
   0.33333350  0.66666650  0.21861400
   0.83333350  0.66666650  0.21861400
   0.33333350  0.16666650  0.71861400
   0.83333350  0.16666650  0.71861400
   0.33333350  0.66666650  0.71861400
   0.83333350  0.66666650  0.71861400
   0.33333350  0.16666650  0.03138600
   0.83333350  0.16666650  0.03138600
   0.33333350  0.66666650  0.03138600
   0.83333350  0.66666650  0.03138600
   0.33333350  0.16666650  0.53138600
   0.83333350  0.16666650  0.53138600
   0.33333350  0.66666650  0.53138600
   0.83333350  0.66666650  0.53138600
   0.16666650  0.33333350  0.28138600
   0.66666650  0.33333350  0.28138600
   0.16666650  0.83333350  0.28138600
   0.66666650  0.83333350  0.28138600
   0.16666650  0.33333350  0.78138600
   0.66666650  0.33333350  0.78138600
   0.16666650  0.83333350  0.78138600
   0.66666650  0.83333350  0.78138600
 
 position of ions in cartesian coordinates  (Angst):
  -0.00000126  1.45093606  3.91892703
   2.51309274  1.45093606  3.91892703
  -1.25654826  3.62733906  3.91892703
   1.25654574  3.62733906  3.91892703
  -0.00000126  1.45093606  8.10032903
   2.51309274  1.45093606  8.10032903
  -1.25654826  3.62733906  8.10032903
   1.25654574  3.62733906  8.10032903
   1.25654826  0.72546694  1.82822603
   3.76964226  0.72546694  1.82822603
   0.00000126  2.90186994  1.82822603
   2.51309526  2.90186994  1.82822603
   1.25654826  0.72546694  6.00962803
   3.76964226  0.72546694  6.00962803
   0.00000126  2.90186994  6.00962803
   2.51309526  2.90186994  6.00962803
   1.25654826  0.72546694  0.26247497
   3.76964226  0.72546694  0.26247497
   0.00000126  2.90186994  0.26247497
   2.51309526  2.90186994  0.26247497
   1.25654826  0.72546694  4.44387697
   3.76964226  0.72546694  4.44387697
   0.00000126  2.90186994  4.44387697
   2.51309526  2.90186994  4.44387697
  -0.00000126  1.45093606  2.35317597
   2.51309274  1.45093606  2.35317597
  -1.25654826  3.62733906  2.35317597
   1.25654574  3.62733906  2.35317597
  -0.00000126  1.45093606  6.53457797
   2.51309274  1.45093606  6.53457797
  -1.25654826  3.62733906  6.53457797
   1.25654574  3.62733906  6.53457797
 


--------------------------------------------------------------------------------------------------------


 k-point  1 :   0.0000 0.0000 0.0000  plane waves:    3357
 k-point  2 :   0.5000 0.0000 0.0000  plane waves:    3330
 k-point  3 :   0.0000 0.0000 0.5000  plane waves:    3292
 k-point  4 :   0.5000 0.0000 0.5000  plane waves:    3328

 maximum and minimum number of plane-waves per node :      3357     3292

 maximum number of plane-waves:      3357
 maximum index in each direction: 
   IXMAX=    8   IYMAX=    8   IZMAX=   13
   IXMIN=   -8   IYMIN=   -8   IZMIN=  -14


 serial   3D FFT for wavefunctions
 parallel 3D FFT for charge:
    minimum data exchange during FFTs selected (reduces bandwidth)


 total amount of memory used by VASP MPI-rank0    50521. kBytes
=======================================================================

   base      :      30000. kBytes
   nonl-proj :       2580. kBytes
   fftplans  :       5716. kBytes
   grid      :       8790. kBytes
   one-center:        196. kBytes
   wavefun   :       3239. kBytes
 
     INWAV:  cpu time    0.0001: real time    0.0002
 Broyden mixing: mesh for mixing (old mesh)
   NGX = 17   NGY = 17   NGZ = 27
  (NGX  = 72   NGY  = 72   NGZ  =112)
  gives a total of   7803 points

 charge density for first step will be calculated from the start-wavefunctions


--------------------------------------------------------------------------------------------------------


 Maximum index for augmentation-charges          2403 (set IRDMAX)


--------------------------------------------------------------------------------------------------------


 initial charge from wavefunction
 First call to EWALD:  gamma=   0.312
 Maximum number of real-space cells 3x 3x 2
 Maximum number of reciprocal cells 2x 2x 4

    FEWALD:  cpu time    0.0009: real time    0.0009


--------------------------------------- Iteration      1(   1)  ---------------------------------------


    POTLOK:  cpu time    0.0518: real time    0.0549
    SETDIJ:  cpu time    0.0222: real time    0.0222
     EDDAV:  cpu time    0.5590: real time    0.5605
 BZINTS: Fermi energy: 12.913749;128.000000 electrons
         Band energy:-126.439890;  BLOECHL correction:  0.000000
       DOS:  cpu time    0.0010: real time    0.0010
    --------------------------------------------
      LOOP:  cpu time    0.6340: real time    0.6386

 eigenvalue-minimisations  :  1792
 total energy-change (2. order) :-0.1001248E+03  (-0.5996895E+04)
 number of electron     128.0000000 magnetization      -0.0000000
 augmentation part       -0.6507879 magnetization      -0.0013404

 Free energy of the ion-electron system (eV)
  ---------------------------------------------------
  alpha Z        PSCENC =       456.02840244
  Ewald energy   TEWEN  =     -5545.14033752
  -Hartree energ DENC   =        -1.66683234
  -exchange      EXHF   =         0.00000000
  -V(xc)+E(xc)   XCENC  =       428.66101776
  PAW double counting   =       400.31319447     -419.95149766
  entropy T*S    EENTRO =         0.00000000
  eigenvalues    EBANDS =      -126.43988992
  atomic energy  EATOM  =      4708.07116389
  Solvation  Ediel_sol  =         0.00000000
  ---------------------------------------------------
  free energy    TOTEN  =      -100.12477887 eV

  energy without entropy =     -100.12477887  energy(sigma->0) =     -100.12477887


--------------------------------------------------------------------------------------------------------




--------------------------------------- Iteration      1(   2)  ---------------------------------------


     EDDAV:  cpu time    0.6620: real time    0.6638
 BZINTS: Fermi energy:  2.021419;128.000000 electrons
         Band energy:-695.668056;  BLOECHL correction:  0.000000
       DOS:  cpu time    0.0009: real time    0.0009
    --------------------------------------------
      LOOP:  cpu time    0.6629: real time    0.6648

 eigenvalue-minimisations  :  2240
 total energy-change (2. order) :-0.5692282E+03  (-0.5412907E+03)
 number of electron     128.0000000 magnetization      -0.0000000
 augmentation part       -0.6507879 magnetization      -0.0013404

 Free energy of the ion-electron system (eV)
  ---------------------------------------------------
  alpha Z        PSCENC =       456.02840244
  Ewald energy   TEWEN  =     -5545.14033752
  -Hartree energ DENC   =        -1.66683234
  -exchange      EXHF   =         0.00000000
  -V(xc)+E(xc)   XCENC  =       428.66101776
  PAW double counting   =       400.31319447     -419.95149766
  entropy T*S    EENTRO =         0.00000000
  eigenvalues    EBANDS =      -695.66805622
  atomic energy  EATOM  =      4708.07116389
  Solvation  Ediel_sol  =         0.00000000
  ---------------------------------------------------
  free energy    TOTEN  =      -669.35294516 eV

  energy without entropy =     -669.35294516  energy(sigma->0) =     -669.35294516


--------------------------------------------------------------------------------------------------------




--------------------------------------- Iteration      1(   3)  ---------------------------------------


     EDDAV:  cpu time    0.7264: real time    0.7283
 BZINTS: Fermi energy:  1.482689;128.000000 electrons
         Band energy:-721.571257;  BLOECHL correction:  0.000000
       DOS:  cpu time    0.0009: real time    0.0009
    --------------------------------------------
      LOOP:  cpu time    0.7273: real time    0.7292

 eigenvalue-minimisations  :  2496
 total energy-change (2. order) :-0.2590320E+02  (-0.2561366E+02)
 number of electron     128.0000000 magnetization      -0.0000000
 augmentation part       -0.6507879 magnetization      -0.0013404

 Free energy of the ion-electron system (eV)
  ---------------------------------------------------
  alpha Z        PSCENC =       456.02840244
  Ewald energy   TEWEN  =     -5545.14033752
  -Hartree energ DENC   =        -1.66683234
  -exchange      EXHF   =         0.00000000
  -V(xc)+E(xc)   XCENC  =       428.66101776
  PAW double counting   =       400.31319447     -419.95149766
  entropy T*S    EENTRO =         0.00000000
  eigenvalues    EBANDS =      -721.57125687
  atomic energy  EATOM  =      4708.07116389
  Solvation  Ediel_sol  =         0.00000000
  ---------------------------------------------------
  free energy    TOTEN  =      -695.25614581 eV

  energy without entropy =     -695.25614581  energy(sigma->0) =     -695.25614581


--------------------------------------------------------------------------------------------------------




--------------------------------------- Iteration      1(   4)  ---------------------------------------


     EDDAV:  cpu time    0.6982: real time    0.6998
 BZINTS: Fermi energy:  1.528849;128.000000 electrons
         Band energy:-722.087648;  BLOECHL correction:  0.000000
       DOS:  cpu time    0.0011: real time    0.0011
    --------------------------------------------
      LOOP:  cpu time    0.6993: real time    0.7009

 eigenvalue-minimisations  :  2416
 total energy-change (2. order) :-0.5163908E+00  (-0.5144888E+00)
 number of electron     128.0000000 magnetization      -0.0000000
 augmentation part       -0.6507879 magnetization      -0.0013404

 Free energy of the ion-electron system (eV)
  ---------------------------------------------------
  alpha Z        PSCENC =       456.02840244
  Ewald energy   TEWEN  =     -5545.14033752
  -Hartree energ DENC   =        -1.66683234
  -exchange      EXHF   =         0.00000000
  -V(xc)+E(xc)   XCENC  =       428.66101776
  PAW double counting   =       400.31319447     -419.95149766
  entropy T*S    EENTRO =         0.00000000
  eigenvalues    EBANDS =      -722.08764763
  atomic energy  EATOM  =      4708.07116389
  Solvation  Ediel_sol  =         0.00000000
  ---------------------------------------------------
  free energy    TOTEN  =      -695.77253658 eV

  energy without entropy =     -695.77253658  energy(sigma->0) =     -695.77253658


--------------------------------------------------------------------------------------------------------




--------------------------------------- Iteration      1(   5)  ---------------------------------------


     EDDAV:  cpu time    0.7043: real time    0.7053
 BZINTS: Fermi energy:  1.515999;128.000000 electrons
         Band energy:-722.099807;  BLOECHL correction:  0.000000
       DOS:  cpu time    0.0011: real time    0.0011
    CHARGE:  cpu time    0.0569: real time    0.0569
    MIXING:  cpu time    0.0010: real time    0.0010
    --------------------------------------------
      LOOP:  cpu time    0.7632: real time    0.7643

 eigenvalue-minimisations  :  2432
 total energy-change (2. order) :-0.1215951E-01  (-0.1214915E-01)
 number of electron     127.9999999 magnetization      -0.0000000
 augmentation part        3.8343440 magnetization       0.0015304

 Broyden mixing:
  rms(total) = 0.91401E+01    rms(broyden)= 0.91385E+01
  rms(prec ) = 0.13117E+02
  weight for this iteration     100.00

 Free energy of the ion-electron system (eV)
  ---------------------------------------------------
  alpha Z        PSCENC =       456.02840244
  Ewald energy   TEWEN  =     -5545.14033752
  -Hartree energ DENC   =        -1.66683234
  -exchange      EXHF   =         0.00000000
  -V(xc)+E(xc)   XCENC  =       428.66101776
  PAW double counting   =       400.31319447     -419.95149766
  entropy T*S    EENTRO =         0.00000000
  eigenvalues    EBANDS =      -722.09980715
  atomic energy  EATOM  =      4708.07116389
  Solvation  Ediel_sol  =         0.00000000
  ---------------------------------------------------
  free energy    TOTEN  =      -695.78469609 eV

  energy without entropy =     -695.78469609  energy(sigma->0) =     -695.78469609


--------------------------------------------------------------------------------------------------------




--------------------------------------- Iteration      1(   6)  ---------------------------------------


    POTLOK:  cpu time    0.0383: real time    0.0390
    SETDIJ:  cpu time    0.0210: real time    0.0210
    EDDIAG:  cpu time    0.1352: real time    0.1352
  RMM-DIIS:  cpu time    0.3158: real time    0.3158
    ORTHCH:  cpu time    0.0176: real time    0.0176
 BZINTS: Fermi energy:  5.456728;128.000000 electrons
         Band energy:-332.688751;  BLOECHL correction:  0.000000
       DOS:  cpu time    0.0011: real time    0.0011
    CHARGE:  cpu time    0.0575: real time    0.0575
    MIXING:  cpu time    0.0009: real time    0.0009
    --------------------------------------------
      LOOP:  cpu time    0.5874: real time    0.5881

 eigenvalue-minimisations  :  1792
 total energy-change (2. order) : 0.2980571E+03  (-0.1776503E+02)
 number of electron     127.9999999 magnetization       0.0000000
 augmentation part        3.5175087 magnetization      -0.0002043

 Broyden mixing:
  rms(total) = 0.48849E+01    rms(broyden)= 0.48849E+01
  rms(prec ) = 0.70887E+01
  weight for this iteration     100.00

 eigenvalues of (default mixing * dielectric matrix)
  average eigenvalue GAMMA=   2.0988
  2.0988

 Free energy of the ion-electron system (eV)
  ---------------------------------------------------
  alpha Z        PSCENC =       456.02840244
  Ewald energy   TEWEN  =     -5545.14033752
  -Hartree energ DENC   =       -87.92396192
  -exchange      EXHF   =         0.00000000
  -V(xc)+E(xc)   XCENC  =       437.62344989
  PAW double counting   =      1056.03298086    -1089.73052828
  entropy T*S    EENTRO =         0.00000000
  eigenvalues    EBANDS =      -332.68875132
  atomic energy  EATOM  =      4708.07116389
  Solvation  Ediel_sol  =         0.00000000
  ---------------------------------------------------
  free energy    TOTEN  =      -397.72758195 eV

  energy without entropy =     -397.72758195  energy(sigma->0) =     -397.72758195


--------------------------------------------------------------------------------------------------------




--------------------------------------- Iteration      1(   7)  ---------------------------------------


    POTLOK:  cpu time    0.0384: real time    0.0395
    SETDIJ:  cpu time    0.0201: real time    0.0201
    EDDIAG:  cpu time    0.1344: real time    0.1344
  RMM-DIIS:  cpu time    0.3167: real time    0.3168
    ORTHCH:  cpu time    0.0180: real time    0.0180
 BZINTS: Fermi energy: 10.098586;128.000000 electrons
         Band energy: 102.281247;  BLOECHL correction:  0.000000
       DOS:  cpu time    0.0011: real time    0.0011
    CHARGE:  cpu time    0.0573: real time    0.0574
    MIXING:  cpu time    0.0010: real time    0.0011
    --------------------------------------------
      LOOP:  cpu time    0.5870: real time    0.5882

 eigenvalue-minimisations  :  1792
 total energy-change (2. order) : 0.1093801E+03  (-0.2658168E+02)
 number of electron     128.0000000 magnetization      -0.0000000
 augmentation part        3.0722314 magnetization       0.0003220

 Broyden mixing:
  rms(total) = 0.62358E+00    rms(broyden)= 0.62234E+00
  rms(prec ) = 0.73544E+00
  weight for this iteration     100.00

 eigenvalues of (default mixing * dielectric matrix)
  average eigenvalue GAMMA=   1.9332
  1.9332  1.9332

 Free energy of the ion-electron system (eV)
  ---------------------------------------------------
  alpha Z        PSCENC =       456.02840244
  Ewald energy   TEWEN  =     -5545.14033752
  -Hartree energ DENC   =      -435.45754298
  -exchange      EXHF   =         0.00000000
  -V(xc)+E(xc)   XCENC  =       470.50921617
  PAW double counting   =      2192.06254719    -2236.70214855
  entropy T*S    EENTRO =         0.00000000
  eigenvalues    EBANDS =       102.28124743
  atomic energy  EATOM  =      4708.07116389
  Solvation  Ediel_sol  =         0.00000000
  ---------------------------------------------------
  free energy    TOTEN  =      -288.34745191 eV

  energy without entropy =     -288.34745191  energy(sigma->0) =     -288.34745191


--------------------------------------------------------------------------------------------------------




--------------------------------------- Iteration      1(   8)  ---------------------------------------


    POTLOK:  cpu time    0.0385: real time    0.0392
    SETDIJ:  cpu time    0.0199: real time    0.0199
    EDDIAG:  cpu time    0.1345: real time    0.1345
  RMM-DIIS:  cpu time    0.3120: real time    0.3120
    ORTHCH:  cpu time    0.0177: real time    0.0177
 BZINTS: Fermi energy:  9.891282;128.000000 electrons
         Band energy:  79.254903;  BLOECHL correction:  0.000000
       DOS:  cpu time    0.0012: real time    0.0012
    CHARGE:  cpu time    0.0574: real time    0.0574
    MIXING:  cpu time    0.0010: real time    0.0010
    --------------------------------------------
      LOOP:  cpu time    0.5821: real time    0.5828

 eigenvalue-minimisations  :  1792
 total energy-change (2. order) :-0.3865943E+00  (-0.1672041E+00)
 number of electron     128.0000000 magnetization      -0.0000000
 augmentation part        3.0318726 magnetization      -0.0006325

 Broyden mixing:
  rms(total) = 0.21775E+00    rms(broyden)= 0.21761E+00
  rms(prec ) = 0.29504E+00
  weight for this iteration     100.00

 eigenvalues of (default mixing * dielectric matrix)
  average eigenvalue GAMMA=   1.7526
  2.2725  2.2725  0.7128

 Free energy of the ion-electron system (eV)
  ---------------------------------------------------
  alpha Z        PSCENC =       456.02840244
  Ewald energy   TEWEN  =     -5545.14033752
  -Hartree energ DENC   =      -414.42062473
  -exchange      EXHF   =         0.00000000
  -V(xc)+E(xc)   XCENC  =       468.44384843
  PAW double counting   =      2063.58010558    -2104.55150780
  entropy T*S    EENTRO =         0.00000000
  eigenvalues    EBANDS =        79.25490346
  atomic energy  EATOM  =      4708.07116389
  Solvation  Ediel_sol  =         0.00000000
  ---------------------------------------------------
  free energy    TOTEN  =      -288.73404624 eV

  energy without entropy =     -288.73404624  energy(sigma->0) =     -288.73404624


--------------------------------------------------------------------------------------------------------




--------------------------------------- Iteration      1(   9)  ---------------------------------------


    POTLOK:  cpu time    0.0383: real time    0.0389
    SETDIJ:  cpu time    0.0198: real time    0.0198
    EDDIAG:  cpu time    0.1356: real time    0.1356
  RMM-DIIS:  cpu time    0.3116: real time    0.3117
    ORTHCH:  cpu time    0.0177: real time    0.0177
 BZINTS: Fermi energy:  9.966554;128.000000 electrons
         Band energy:  89.114712;  BLOECHL correction:  0.000000
       DOS:  cpu time    0.0011: real time    0.0011
    CHARGE:  cpu time    0.0577: real time    0.0577
    MIXING:  cpu time    0.0010: real time    0.0010
    --------------------------------------------
      LOOP:  cpu time    0.5827: real time    0.5835

 eigenvalue-minimisations  :  1792
 total energy-change (2. order) :-0.2334996E+00  (-0.3637314E-01)
 number of electron     128.0000000 magnetization      -0.0000000
 augmentation part        3.0253819 magnetization       0.0004750

 Broyden mixing:
  rms(total) = 0.67824E-01    rms(broyden)= 0.67797E-01
  rms(prec ) = 0.95683E-01
  weight for this iteration     100.00

 eigenvalues of (default mixing * dielectric matrix)
  average eigenvalue GAMMA=   1.6602
  2.7713  2.0740  1.1002  0.6952

 Free energy of the ion-electron system (eV)
  ---------------------------------------------------
  alpha Z        PSCENC =       456.02840244
  Ewald energy   TEWEN  =     -5545.14033752
  -Hartree energ DENC   =      -426.18458755
  -exchange      EXHF   =         0.00000000
  -V(xc)+E(xc)   XCENC  =       469.54036828
  PAW double counting   =      2079.42021795    -2119.81748510
  entropy T*S    EENTRO =         0.00000000
  eigenvalues    EBANDS =        89.11471177
  atomic energy  EATOM  =      4708.07116389
  Solvation  Ediel_sol  =         0.00000000
  ---------------------------------------------------
  free energy    TOTEN  =      -288.96754582 eV

  energy without entropy =     -288.96754582  energy(sigma->0) =     -288.96754582


--------------------------------------------------------------------------------------------------------




--------------------------------------- Iteration      1(  10)  ---------------------------------------


    POTLOK:  cpu time    0.0368: real time    0.0401
    SETDIJ:  cpu time    0.0200: real time    0.0200
    EDDIAG:  cpu time    0.1349: real time    0.1349
  RMM-DIIS:  cpu time    0.3114: real time    0.3114
    ORTHCH:  cpu time    0.0177: real time    0.0177
 BZINTS: Fermi energy: 10.022762;128.000000 electrons
         Band energy:  95.770782;  BLOECHL correction:  0.000000
       DOS:  cpu time    0.0011: real time    0.0011
    CHARGE:  cpu time    0.0572: real time    0.0572
    MIXING:  cpu time    0.0011: real time    0.0011
    --------------------------------------------
      LOOP:  cpu time    0.5800: real time    0.5834

 eigenvalue-minimisations  :  1792
 total energy-change (2. order) :-0.2026624E-01  (-0.6078455E-02)
 number of electron     128.0000000 magnetization       0.0000000
 augmentation part        3.0194122 magnetization      -0.0000776

 Broyden mixing:
  rms(total) = 0.17052E-01    rms(broyden)= 0.17034E-01
  rms(prec ) = 0.20707E-01
  weight for this iteration     100.00

 eigenvalues of (default mixing * dielectric matrix)
  average eigenvalue GAMMA=   1.5677
  2.9513  1.9165  1.5912  0.6898  0.6898

 Free energy of the ion-electron system (eV)
  ---------------------------------------------------
  alpha Z        PSCENC =       456.02840244
  Ewald energy   TEWEN  =     -5545.14033752
  -Hartree energ DENC   =      -433.59134419
  -exchange      EXHF   =         0.00000000
  -V(xc)+E(xc)   XCENC  =       470.22791750
  PAW double counting   =      2095.99206649    -2136.34646249
  entropy T*S    EENTRO =         0.00000000
  eigenvalues    EBANDS =        95.77078180
  atomic energy  EATOM  =      4708.07116389
  Solvation  Ediel_sol  =         0.00000000
  ---------------------------------------------------
  free energy    TOTEN  =      -288.98781206 eV

  energy without entropy =     -288.98781206  energy(sigma->0) =     -288.98781206


--------------------------------------------------------------------------------------------------------




--------------------------------------- Iteration      1(  11)  ---------------------------------------


    POTLOK:  cpu time    0.0367: real time    0.0396
    SETDIJ:  cpu time    0.0200: real time    0.0200
    EDDIAG:  cpu time    0.1342: real time    0.1342
  RMM-DIIS:  cpu time    0.3113: real time    0.3114
    ORTHCH:  cpu time    0.0175: real time    0.0176
 BZINTS: Fermi energy: 10.022672;128.000000 electrons
         Band energy:  96.151279;  BLOECHL correction:  0.000000
       DOS:  cpu time    0.0011: real time    0.0011
    CHARGE:  cpu time    0.0573: real time    0.0573
    MIXING:  cpu time    0.0012: real time    0.0012
    --------------------------------------------
      LOOP:  cpu time    0.5793: real time    0.5823

 eigenvalue-minimisations  :  1792
 total energy-change (2. order) :-0.7855034E-03  (-0.1776655E-03)
 number of electron     128.0000000 magnetization       0.0000000
 augmentation part        3.0175854 magnetization      -0.0000215

 Broyden mixing:
  rms(total) = 0.13864E-01    rms(broyden)= 0.13861E-01
  rms(prec ) = 0.19175E-01
  weight for this iteration     100.00

 eigenvalues of (default mixing * dielectric matrix)
  average eigenvalue GAMMA=   1.5533
  2.9583  2.0567  2.0567  0.8208  0.7794  0.6480

 Free energy of the ion-electron system (eV)
  ---------------------------------------------------
  alpha Z        PSCENC =       456.02840244
  Ewald energy   TEWEN  =     -5545.14033752
  -Hartree energ DENC   =      -433.93087165
  -exchange      EXHF   =         0.00000000
  -V(xc)+E(xc)   XCENC  =       470.25903241
  PAW double counting   =      2098.57745646    -2139.00472288
  entropy T*S    EENTRO =         0.00000000
  eigenvalues    EBANDS =        96.15127927
  atomic energy  EATOM  =      4708.07116389
  Solvation  Ediel_sol  =         0.00000000
  ---------------------------------------------------
  free energy    TOTEN  =      -288.98859756 eV

  energy without entropy =     -288.98859756  energy(sigma->0) =     -288.98859756


--------------------------------------------------------------------------------------------------------




--------------------------------------- Iteration      1(  12)  ---------------------------------------


    POTLOK:  cpu time    0.0387: real time    0.0396
    SETDIJ:  cpu time    0.0197: real time    0.0197
    EDDIAG:  cpu time    0.1343: real time    0.1343
  RMM-DIIS:  cpu time    0.3124: real time    0.3125
    ORTHCH:  cpu time    0.0176: real time    0.0176
 BZINTS: Fermi energy: 10.014377;128.000000 electrons
         Band energy:  95.359919;  BLOECHL correction:  0.000000
       DOS:  cpu time    0.0012: real time    0.0012
    CHARGE:  cpu time    0.0575: real time    0.0575
    MIXING:  cpu time    0.0013: real time    0.0013
    --------------------------------------------
      LOOP:  cpu time    0.5828: real time    0.5837

 eigenvalue-minimisations  :  1792
 total energy-change (2. order) : 0.1639618E-03  (-0.3631688E-04)
 number of electron     128.0000000 magnetization       0.0000000
 augmentation part        3.0176894 magnetization      -0.0000080

 Broyden mixing:
  rms(total) = 0.37684E-02    rms(broyden)= 0.37682E-02
  rms(prec ) = 0.53326E-02
  weight for this iteration     100.00

 eigenvalues of (default mixing * dielectric matrix)
  average eigenvalue GAMMA=   1.5237
  2.7981  2.5646  2.0719  1.0574  0.8205  0.7155  0.6382

 Free energy of the ion-electron system (eV)
  ---------------------------------------------------
  alpha Z        PSCENC =       456.02840244
  Ewald energy   TEWEN  =     -5545.14033752
  -Hartree energ DENC   =      -433.00484146
  -exchange      EXHF   =         0.00000000
  -V(xc)+E(xc)   XCENC  =       470.17221034
  PAW double counting   =      2097.78490425    -2138.25985439
  entropy T*S    EENTRO =         0.00000000
  eigenvalues    EBANDS =        95.35991883
  atomic energy  EATOM  =      4708.07116389
  Solvation  Ediel_sol  =         0.00000000
  ---------------------------------------------------
  free energy    TOTEN  =      -288.98843360 eV

  energy without entropy =     -288.98843360  energy(sigma->0) =     -288.98843360


--------------------------------------------------------------------------------------------------------




--------------------------------------- Iteration      1(  13)  ---------------------------------------


    POTLOK:  cpu time    0.0386: real time    0.0392
    SETDIJ:  cpu time    0.0203: real time    0.0203
    EDDIAG:  cpu time    0.1341: real time    0.1341
  RMM-DIIS:  cpu time    0.3122: real time    0.3122
    ORTHCH:  cpu time    0.0176: real time    0.0176
 BZINTS: Fermi energy: 10.012255;128.000000 electrons
         Band energy:  95.022339;  BLOECHL correction:  0.000000
       DOS:  cpu time    0.0011: real time    0.0011
    CHARGE:  cpu time    0.0570: real time    0.0570
    MIXING:  cpu time    0.0014: real time    0.0014
    --------------------------------------------
      LOOP:  cpu time    0.5823: real time    0.5829

 eigenvalue-minimisations  :  1792
 total energy-change (2. order) : 0.2833218E-04  (-0.1188039E-04)
 number of electron     128.0000000 magnetization       0.0000000
 augmentation part        3.0179631 magnetization      -0.0000004

 Broyden mixing:
  rms(total) = 0.31424E-03    rms(broyden)= 0.31381E-03
  rms(prec ) = 0.35734E-03
  weight for this iteration     100.00

 eigenvalues of (default mixing * dielectric matrix)
  average eigenvalue GAMMA=   1.4533
  2.6905  2.6905  2.0319  1.2322  0.8285  0.8285  0.6888  0.6359

 Free energy of the ion-electron system (eV)
  ---------------------------------------------------
  alpha Z        PSCENC =       456.02840244
  Ewald energy   TEWEN  =     -5545.14033752
  -Hartree energ DENC   =      -432.63804042
  -exchange      EXHF   =         0.00000000
  -V(xc)+E(xc)   XCENC  =       470.13795099
  PAW double counting   =      2096.89417793    -2137.36406194
  entropy T*S    EENTRO =         0.00000000
  eigenvalues    EBANDS =        95.02233935
  atomic energy  EATOM  =      4708.07116389
  Solvation  Ediel_sol  =         0.00000000
  ---------------------------------------------------
  free energy    TOTEN  =      -288.98840527 eV

  energy without entropy =     -288.98840527  energy(sigma->0) =     -288.98840527


--------------------------------------------------------------------------------------------------------




--------------------------------------- Iteration      1(  14)  ---------------------------------------


    POTLOK:  cpu time    0.0386: real time    0.0394
    SETDIJ:  cpu time    0.0200: real time    0.0199
    EDDIAG:  cpu time    0.1341: real time    0.1341
  RMM-DIIS:  cpu time    0.2823: real time    0.2824
    ORTHCH:  cpu time    0.0177: real time    0.0177
 BZINTS: Fermi energy: 10.011801;128.000000 electrons
         Band energy:  95.000715;  BLOECHL correction:  0.000000
       DOS:  cpu time    0.0011: real time    0.0011
    --------------------------------------------
      LOOP:  cpu time    0.4938: real time    0.4947

 eigenvalue-minimisations  :  1423
 total energy-change (2. order) :-0.8417016E-06  (-0.2719354E-06)
 number of electron     128.0000000 magnetization       0.0000000
 augmentation part        3.0179631 magnetization      -0.0000004

 Free energy of the ion-electron system (eV)
  ---------------------------------------------------
  alpha Z        PSCENC =       456.02840244
  Ewald energy   TEWEN  =     -5545.14033752
  -Hartree energ DENC   =      -432.61596826
  -exchange      EXHF   =         0.00000000
  -V(xc)+E(xc)   XCENC  =       470.13590896
  PAW double counting   =      2096.82805182    -2137.29634224
  entropy T*S    EENTRO =         0.00000000
  eigenvalues    EBANDS =        95.00071479
  atomic energy  EATOM  =      4708.07116389
  Solvation  Ediel_sol  =         0.00000000
  ---------------------------------------------------
  free energy    TOTEN  =      -288.98840611 eV

  energy without entropy =     -288.98840611  energy(sigma->0) =     -288.98840611


--------------------------------------------------------------------------------------------------------




 average (electrostatic) potential at core
  the test charge radii are     0.6991
  (the norm of the test charge is              1.0000)
       1 -45.4620       2 -45.4620       3 -45.4620       4 -45.4620       5 -45.4620
       6 -45.4620       7 -45.4620       8 -45.4620       9 -45.4620      10 -45.4620
      11 -45.4620      12 -45.4620      13 -45.4620      14 -45.4620      15 -45.4620
      16 -45.4620      17 -45.4620      18 -45.4620      19 -45.4620      20 -45.4620
      21 -45.4620      22 -45.4620      23 -45.4620      24 -45.4620      25 -45.4620
      26 -45.4620      27 -45.4620      28 -45.4620      29 -45.4620      30 -45.4620
      31 -45.4620      32 -45.4620
 
 
 
 E-fermi :  10.0118     XC(G=0): -13.1702     alpha+bet :-17.5582


 spin component 1

 k-point     1 :       0.0000    0.0000    0.0000
  band No.  band energies     occupation 
      1     -11.7413      1.00000
      2     -10.0757      1.00000
      3     -10.0757      1.00000
      4      -6.5272      1.00000
      5      -6.5271      1.00000
      6      -6.5271      1.00000
      7      -6.2071      1.00000
      8      -5.0328      1.00000
      9      -5.0328      1.00000
     10      -5.0327      1.00000
     11      -5.0327      1.00000
     12      -5.0327      1.00000
     13      -5.0327      1.00000
     14      -4.6952      1.00000
     15      -4.6952      1.00000
     16      -4.6952      1.00000
     17      -3.6570      1.00000
     18      -2.9746      1.00000
     19      -2.9746      1.00000
     20      -2.9746      1.00000
     21      -2.9746      1.00000
     22      -2.9745      1.00000
     23      -2.9745      1.00000
     24      -1.3788      1.00000
     25      -1.3788      1.00000
     26      -1.3788      1.00000
     27      -0.0180      1.00000
     28      -0.0180      1.00000
     29      -0.0179      1.00000
     30       0.7444      1.00000
     31       0.7444      1.00000
     32       0.7444      1.00000
     33       2.9465      1.00000
     34       2.9465      1.00000
     35       3.5288      1.00000
     36       3.5288      1.00000
     37       3.5288      1.00000
     38       4.0470      1.00000
     39       4.0470      1.00000
     40       4.0471      1.00000
     41       4.8851      1.00000
     42       4.8851      1.00000
     43       4.8852      1.00000
     44       4.8852      1.00000
     45       4.8852      1.00000
     46       4.8852      1.00000
     47       5.1633      1.00000
     48       5.1633      1.00000
     49       5.1633      1.00000
     50       5.1633      1.00000
     51       5.1633      1.00000
     52       5.1633      1.00000
     53       6.8348      1.00000
     54       6.8348      1.00000
     55       6.8348      1.00000
     56       6.8886      1.00000
     57       6.8887      1.00000
     58       8.1186      1.00000
     59       8.1186      1.00000
     60       8.1187      1.00000
     61       8.1187      1.00000
     62       9.4843      1.00000
     63       9.9698      1.00000
     64       9.9699      1.00000
     65      14.4024      0.00000
     66      14.4025      0.00000
     67      14.4025      0.00000
     68      14.9124      0.00000
     69      14.9125      0.00000
     70      15.3037      0.00000
     71      15.8042      0.00000
     72      15.8042      0.00000
     73      15.8043      0.00000
     74      15.8043      0.00000
     75      15.8043      0.00000
     76      15.8043      0.00000
     77      16.4295      0.00000
     78      16.4295      0.00000
     79      16.4295      0.00000
     80      16.4295      0.00000
     81      16.4295      0.00000
     82      16.4295      0.00000
     83      17.1810      0.00000
     84      17.1810      0.00000
     85      17.1811      0.00000
     86      17.1811      0.00000
     87      17.5336      0.00000
     88      17.5336      0.00000
     89      17.9577      0.00000
     90      18.0271      0.00000
     91      18.0271      0.00000
     92      18.0271      0.00000
     93      18.2163      0.00000
     94      18.2163      0.00000
     95      18.2163      0.00000
     96      18.3083      0.00000
     97      18.3084      0.00000
     98      18.3084      0.00000
     99      19.4343      0.00000
    100      19.4344      0.00000
    101      20.7874      0.00000
    102      20.7875      0.00000
    103      20.7876      0.00000
    104      22.3983      0.00000
    105      22.3984      0.00000
    106      22.3984      0.00000
    107      22.3990      0.00000
    108      22.3998      0.00000
    109      22.5133      0.00000
    110      22.6907      0.00000
    111      22.6913      0.00000
    112      22.8969      0.00000

 k-point     2 :       0.5000    0.0000    0.0000
  band No.  band energies     occupation 
      1     -10.2094      1.00000
      2     -10.2094      1.00000
      3      -8.5703      1.00000
      4      -8.5703      1.00000
      5      -8.5703      1.00000
      6      -8.5703      1.00000
      7      -7.2858      1.00000
      8      -7.2858      1.00000
      9      -5.7202      1.00000
     10      -5.7202      1.00000
     11      -5.7202      1.00000
     12      -5.7202      1.00000
     13      -4.8224      1.00000
     14      -4.8224      1.00000
     15      -2.4641      1.00000
     16      -2.4641      1.00000
     17      -2.3159      1.00000
     18      -2.3159      1.00000
     19      -2.1658      1.00000
     20      -2.1658      1.00000
     21      -0.7298      1.00000
     22      -0.7298      1.00000
     23      -0.7298      1.00000
     24      -0.7298      1.00000
     25       0.4375      1.00000
     26       0.4375      1.00000
     27       0.8207      1.00000
     28       0.8207      1.00000
     29       1.6701      1.00000
     30       1.6701      1.00000
     31       1.9840      1.00000
     32       1.9840      1.00000
     33       1.9840      1.00000
     34       1.9840      1.00000
     35       2.2936      1.00000
     36       2.2936      1.00000
     37       2.5578      1.00000
     38       2.5578      1.00000
     39       2.5578      1.00000
     40       2.5578      1.00000
     41       4.2957      1.00000
     42       4.2957      1.00000
     43       4.2957      1.00000
     44       4.2957      1.00000
     45       4.4147      1.00000
     46       4.4147      1.00000
     47       4.8119      1.00000
     48       4.8119      1.00000
     49       4.8598      1.00000
     50       4.8598      1.00000
     51       5.3488      1.00000
     52       5.3488      1.00000
     53       5.3488      1.00000
     54       5.3488      1.00000
     55       5.4360      1.00000
     56       5.4360      1.00000
     57       6.1858      1.00000
     58       6.1858      1.00000
     59       6.1858      1.00000
     60       6.1858      1.00000
     61       7.4391      1.00000
     62       7.4391      1.00000
     63       8.1064      1.00000
     64       8.1064      1.00000
     65      14.4227      0.00000
     66      14.4227      0.00000
     67      14.8515      0.00000
     68      14.8515      0.00000
     69      15.9749      0.00000
     70      15.9749      0.00000
     71      15.9749      0.00000
     72      15.9749      0.00000
     73      16.8862      0.00000
     74      16.8862      0.00000
     75      17.1723      0.00000
     76      17.1723      0.00000
     77      17.1723      0.00000
     78      17.1723      0.00000
     79      17.3596      0.00000
     80      17.3596      0.00000
     81      19.3515      0.00000
     82      19.3515      0.00000
     83      19.3515      0.00000
     84      19.3515      0.00000
     85      19.6420      0.00000
     86      19.6420      0.00000
     87      19.6935      0.00000
     88      19.6935      0.00000
     89      19.9949      0.00000
     90      19.9950      0.00000
     91      19.9951      0.00000
     92      19.9956      0.00000
     93      20.0561      0.00000
     94      20.0561      0.00000
     95      20.0575      0.00000
     96      20.0575      0.00000
     97      20.4057      0.00000
     98      20.4057      0.00000
     99      20.4057      0.00000
    100      20.4057      0.00000
    101      20.6703      0.00000
    102      20.6704      0.00000
    103      20.6991      0.00000
    104      20.6995      0.00000
    105      20.6997      0.00000
    106      20.7000      0.00000
    107      23.1335      0.00000
    108      23.1365      0.00000
    109      23.1633      0.00000
    110      23.1829      0.00000
    111      23.8884      0.00000
    112      23.9221      0.00000

 k-point     3 :       0.0000    0.0000    0.5000
  band No.  band energies     occupation 
      1     -11.3216      1.00000
      2     -11.3216      1.00000
      3      -8.0767      1.00000
      4      -8.0767      1.00000
      5      -6.1433      1.00000
      6      -6.1433      1.00000
      7      -6.1433      1.00000
      8      -6.1433      1.00000
      9      -6.1433      1.00000
     10      -6.1433      1.00000
     11      -4.3559      1.00000
     12      -4.3559      1.00000
     13      -4.3559      1.00000
     14      -4.3559      1.00000
     15      -4.3558      1.00000
     16      -4.3558      1.00000
     17      -3.0029      1.00000
     18      -3.0029      1.00000
     19      -3.0029      1.00000
     20      -3.0029      1.00000
     21      -3.0029      1.00000
     22      -3.0029      1.00000
     23      -1.2615      1.00000
     24      -1.2615      1.00000
     25      -1.2615      1.00000
     26      -1.2615      1.00000
     27      -1.2615      1.00000
     28      -1.2615      1.00000
     29      -1.0786      1.00000
     30      -1.0786      1.00000
     31       2.8170      1.00000
     32       2.8170      1.00000
     33       2.8171      1.00000
     34       2.8171      1.00000
     35       2.8171      1.00000
     36       2.8171      1.00000
     37       3.8901      1.00000
     38       3.8901      1.00000
     39       3.8901      1.00000
     40       3.8901      1.00000
     41       3.8901      1.00000
     42       3.8901      1.00000
     43       5.1505      1.00000
     44       5.1505      1.00000
     45       5.1505      1.00000
     46       5.1505      1.00000
     47       5.1505      1.00000
     48       5.1505      1.00000
     49       6.1642      1.00000
     50       6.1642      1.00000
     51       6.1642      1.00000
     52       6.1642      1.00000
     53       6.1642      1.00000
     54       6.1642      1.00000
     55       7.1044      1.00000
     56       7.1044      1.00000
     57       7.2152      1.00000
     58       7.2152      1.00000
     59       7.2152      1.00000
     60       7.2152      1.00000
     61       9.3075      1.00000
     62       9.3075      1.00000
     63       9.3076      1.00000
     64       9.3076      1.00000
     65      14.7641      0.00000
     66      14.7641      0.00000
     67      14.7641      0.00000
     68      14.7641      0.00000
     69      14.7641      0.00000
     70      14.7641      0.00000
     71      15.6534      0.00000
     72      15.6534      0.00000
     73      15.6534      0.00000
     74      15.6534      0.00000
     75      16.3748      0.00000
     76      16.3748      0.00000
     77      16.3748      0.00000
     78      16.3748      0.00000
     79      16.3748      0.00000
     80      16.3748      0.00000
     81      16.4659      0.00000
     82      16.4659      0.00000
     83      17.3540      0.00000
     84      17.3540      0.00000
     85      17.3541      0.00000
     86      17.3541      0.00000
     87      17.3541      0.00000
     88      17.3541      0.00000
     89      17.8950      0.00000
     90      17.8950      0.00000
     91      18.7174      0.00000
     92      18.7174      0.00000
     93      18.7175      0.00000
     94      18.7175      0.00000
     95      19.5123      0.00000
     96      19.5123      0.00000
     97      19.5123      0.00000
     98      19.5123      0.00000
     99      19.5123      0.00000
    100      19.5123      0.00000
    101      19.7037      0.00000
    102      19.7037      0.00000
    103      19.7037      0.00000
    104      19.7037      0.00000
    105      19.7038      0.00000
    106      19.7038      0.00000
    107      22.9197      0.00000
    108      22.9204      0.00000
    109      22.9217      0.00000
    110      22.9264      0.00000
    111      23.7066      0.00000
    112      24.0137      0.00000

 k-point     4 :       0.5000    0.0000    0.5000
  band No.  band energies     occupation 
      1      -9.7956      1.00000
      2      -9.7956      1.00000
      3      -9.7956      1.00000
      4      -9.7956      1.00000
      5      -6.8882      1.00000
      6      -6.8882      1.00000
      7      -6.8882      1.00000
      8      -6.8882      1.00000
      9      -6.6167      1.00000
     10      -6.6167      1.00000
     11      -6.6167      1.00000
     12      -6.6167      1.00000
     13      -3.9112      1.00000
     14      -3.9112      1.00000
     15      -3.9112      1.00000
     16      -3.9112      1.00000
     17      -1.8167      1.00000
     18      -1.8167      1.00000
     19      -1.8167      1.00000
     20      -1.8167      1.00000
     21      -0.0041      1.00000
     22      -0.0041      1.00000
     23      -0.0041      1.00000
     24      -0.0041      1.00000
     25       0.6853      1.00000
     26       0.6853      1.00000
     27       0.6853      1.00000
     28       0.6853      1.00000
     29       1.1302      1.00000
     30       1.1302      1.00000
     31       1.1302      1.00000
     32       1.1302      1.00000
     33       2.1382      1.00000
     34       2.1382      1.00000
     35       2.1382      1.00000
     36       2.1382      1.00000
     37       2.6210      1.00000
     38       2.6210      1.00000
     39       2.6210      1.00000
     40       2.6210      1.00000
     41       3.6647      1.00000
     42       3.6647      1.00000
     43       3.6647      1.00000
     44       3.6647      1.00000
     45       4.3583      1.00000
     46       4.3583      1.00000
     47       4.3583      1.00000
     48       4.3583      1.00000
     49       5.2127      1.00000
     50       5.2127      1.00000
     51       5.2127      1.00000
     52       5.2127      1.00000
     53       5.7880      1.00000
     54       5.7880      1.00000
     55       5.7880      1.00000
     56       5.7880      1.00000
     57       6.9201      1.00000
     58       6.9201      1.00000
     59       6.9201      1.00000
     60       6.9201      1.00000
     61       7.4356      1.00000
     62       7.4356      1.00000
     63       7.4356      1.00000
     64       7.4356      1.00000
     65      14.8892      0.00000
     66      14.8892      0.00000
     67      14.8892      0.00000
     68      14.8892      0.00000
     69      15.9606      0.00000
     70      15.9606      0.00000
     71      15.9606      0.00000
     72      15.9606      0.00000
     73      16.7947      0.00000
     74      16.7947      0.00000
     75      16.7947      0.00000
     76      16.7947      0.00000
     77      17.5866      0.00000
     78      17.5866      0.00000
     79      17.5866      0.00000
     80      17.5866      0.00000
     81      18.3426      0.00000
     82      18.3426      0.00000
     83      18.3426      0.00000
     84      18.3426      0.00000
     85      18.5913      0.00000
     86      18.5913      0.00000
     87      18.5913      0.00000
     88      18.5913      0.00000
     89      20.2134      0.00000
     90      20.2136      0.00000
     91      20.2141      0.00000
     92      20.2151      0.00000
     93      20.4668      0.00000
     94      20.4668      0.00000
     95      20.4668      0.00000
     96      20.4671      0.00000
     97      20.8442      0.00000
     98      20.8442      0.00000
     99      20.8443      0.00000
    100      20.8444      0.00000
    101      21.3768      0.00000
    102      21.3771      0.00000
    103      21.3777      0.00000
    104      21.3784      0.00000
    105      22.3098      0.00000
    106      22.3106      0.00000
    107      22.3145      0.00000
    108      22.3162      0.00000
    109      22.9646      0.00000
    110      22.9795      0.00000
    111      23.0103      0.00000
    112      23.0738      0.00000

 spin component 2

 k-point     1 :       0.0000    0.0000    0.0000
  band No.  band energies     occupation 
      1     -11.7413      1.00000
      2     -10.0757      1.00000
      3     -10.0757      1.00000
      4      -6.5272      1.00000
      5      -6.5272      1.00000
      6      -6.5271      1.00000
      7      -6.2072      1.00000
      8      -5.0328      1.00000
      9      -5.0328      1.00000
     10      -5.0327      1.00000
     11      -5.0327      1.00000
     12      -5.0327      1.00000
     13      -5.0327      1.00000
     14      -4.6952      1.00000
     15      -4.6952      1.00000
     16      -4.6952      1.00000
     17      -3.6570      1.00000
     18      -2.9746      1.00000
     19      -2.9746      1.00000
     20      -2.9746      1.00000
     21      -2.9746      1.00000
     22      -2.9745      1.00000
     23      -2.9745      1.00000
     24      -1.3788      1.00000
     25      -1.3788      1.00000
     26      -1.3788      1.00000
     27      -0.0180      1.00000
     28      -0.0180      1.00000
     29      -0.0179      1.00000
     30       0.7444      1.00000
     31       0.7444      1.00000
     32       0.7444      1.00000
     33       2.9465      1.00000
     34       2.9465      1.00000
     35       3.5288      1.00000
     36       3.5288      1.00000
     37       3.5288      1.00000
     38       4.0470      1.00000
     39       4.0470      1.00000
     40       4.0471      1.00000
     41       4.8851      1.00000
     42       4.8851      1.00000
     43       4.8852      1.00000
     44       4.8852      1.00000
     45       4.8852      1.00000
     46       4.8852      1.00000
     47       5.1633      1.00000
     48       5.1633      1.00000
     49       5.1633      1.00000
     50       5.1633      1.00000
     51       5.1633      1.00000
     52       5.1633      1.00000
     53       6.8348      1.00000
     54       6.8348      1.00000
     55       6.8348      1.00000
     56       6.8886      1.00000
     57       6.8887      1.00000
     58       8.1186      1.00000
     59       8.1186      1.00000
     60       8.1187      1.00000
     61       8.1187      1.00000
     62       9.4843      1.00000
     63       9.9698      1.00000
     64       9.9699      1.00000
     65      14.4024      0.00000
     66      14.4025      0.00000
     67      14.4025      0.00000
     68      14.9124      0.00000
     69      14.9125      0.00000
     70      15.3037      0.00000
     71      15.8042      0.00000
     72      15.8042      0.00000
     73      15.8043      0.00000
     74      15.8043      0.00000
     75      15.8043      0.00000
     76      15.8043      0.00000
     77      16.4295      0.00000
     78      16.4295      0.00000
     79      16.4295      0.00000
     80      16.4295      0.00000
     81      16.4295      0.00000
     82      16.4295      0.00000
     83      17.1810      0.00000
     84      17.1810      0.00000
     85      17.1811      0.00000
     86      17.1811      0.00000
     87      17.5336      0.00000
     88      17.5336      0.00000
     89      17.9577      0.00000
     90      18.0271      0.00000
     91      18.0271      0.00000
     92      18.0271      0.00000
     93      18.2163      0.00000
     94      18.2163      0.00000
     95      18.2163      0.00000
     96      18.3083      0.00000
     97      18.3084      0.00000
     98      18.3084      0.00000
     99      19.4343      0.00000
    100      19.4344      0.00000
    101      20.7875      0.00000
    102      20.7875      0.00000
    103      20.7878      0.00000
    104      22.3983      0.00000
    105      22.3983      0.00000
    106      22.3985      0.00000
    107      22.3986      0.00000
    108      22.3990      0.00000
    109      22.5005      0.00000
    110      22.6905      0.00000
    111      22.6914      0.00000
    112      23.5940      0.00000

 k-point     2 :       0.5000    0.0000    0.0000
  band No.  band energies     occupation 
      1     -10.2094      1.00000
      2     -10.2094      1.00000
      3      -8.5703      1.00000
      4      -8.5703      1.00000
      5      -8.5703      1.00000
      6      -8.5703      1.00000
      7      -7.2858      1.00000
      8      -7.2858      1.00000
      9      -5.7202      1.00000
     10      -5.7202      1.00000
     11      -5.7202      1.00000
     12      -5.7202      1.00000
     13      -4.8224      1.00000
     14      -4.8224      1.00000
     15      -2.4641      1.00000
     16      -2.4641      1.00000
     17      -2.3159      1.00000
     18      -2.3159      1.00000
     19      -2.1658      1.00000
     20      -2.1658      1.00000
     21      -0.7298      1.00000
     22      -0.7298      1.00000
     23      -0.7298      1.00000
     24      -0.7298      1.00000
     25       0.4375      1.00000
     26       0.4375      1.00000
     27       0.8207      1.00000
     28       0.8207      1.00000
     29       1.6701      1.00000
     30       1.6701      1.00000
     31       1.9840      1.00000
     32       1.9840      1.00000
     33       1.9840      1.00000
     34       1.9840      1.00000
     35       2.2936      1.00000
     36       2.2936      1.00000
     37       2.5578      1.00000
     38       2.5578      1.00000
     39       2.5578      1.00000
     40       2.5578      1.00000
     41       4.2957      1.00000
     42       4.2957      1.00000
     43       4.2957      1.00000
     44       4.2957      1.00000
     45       4.4147      1.00000
     46       4.4147      1.00000
     47       4.8119      1.00000
     48       4.8119      1.00000
     49       4.8598      1.00000
     50       4.8598      1.00000
     51       5.3488      1.00000
     52       5.3488      1.00000
     53       5.3488      1.00000
     54       5.3488      1.00000
     55       5.4360      1.00000
     56       5.4360      1.00000
     57       6.1858      1.00000
     58       6.1858      1.00000
     59       6.1858      1.00000
     60       6.1858      1.00000
     61       7.4391      1.00000
     62       7.4391      1.00000
     63       8.1064      1.00000
     64       8.1064      1.00000
     65      14.4227      0.00000
     66      14.4227      0.00000
     67      14.8515      0.00000
     68      14.8515      0.00000
     69      15.9749      0.00000
     70      15.9749      0.00000
     71      15.9749      0.00000
     72      15.9749      0.00000
     73      16.8862      0.00000
     74      16.8862      0.00000
     75      17.1723      0.00000
     76      17.1723      0.00000
     77      17.1723      0.00000
     78      17.1723      0.00000
     79      17.3597      0.00000
     80      17.3597      0.00000
     81      19.3515      0.00000
     82      19.3515      0.00000
     83      19.3515      0.00000
     84      19.3515      0.00000
     85      19.6420      0.00000
     86      19.6420      0.00000
     87      19.6935      0.00000
     88      19.6935      0.00000
     89      19.9949      0.00000
     90      19.9950      0.00000
     91      19.9951      0.00000
     92      19.9953      0.00000
     93      20.0561      0.00000
     94      20.0561      0.00000
     95      20.0574      0.00000
     96      20.0574      0.00000
     97      20.4057      0.00000
     98      20.4057      0.00000
     99      20.4057      0.00000
    100      20.4057      0.00000
    101      20.6703      0.00000
    102      20.6703      0.00000
    103      20.6994      0.00000
    104      20.6995      0.00000
    105      20.6998      0.00000
    106      20.6998      0.00000
    107      23.1386      0.00000
    108      23.1498      0.00000
    109      23.1602      0.00000
    110      23.1734      0.00000
    111      23.8918      0.00000
    112      23.9094      0.00000

 k-point     3 :       0.0000    0.0000    0.5000
  band No.  band energies     occupation 
      1     -11.3216      1.00000
      2     -11.3216      1.00000
      3      -8.0767      1.00000
      4      -8.0767      1.00000
      5      -6.1433      1.00000
      6      -6.1433      1.00000
      7      -6.1433      1.00000
      8      -6.1433      1.00000
      9      -6.1433      1.00000
     10      -6.1433      1.00000
     11      -4.3559      1.00000
     12      -4.3559      1.00000
     13      -4.3559      1.00000
     14      -4.3559      1.00000
     15      -4.3558      1.00000
     16      -4.3558      1.00000
     17      -3.0029      1.00000
     18      -3.0029      1.00000
     19      -3.0029      1.00000
     20      -3.0029      1.00000
     21      -3.0029      1.00000
     22      -3.0029      1.00000
     23      -1.2615      1.00000
     24      -1.2615      1.00000
     25      -1.2615      1.00000
     26      -1.2615      1.00000
     27      -1.2615      1.00000
     28      -1.2615      1.00000
     29      -1.0786      1.00000
     30      -1.0786      1.00000
     31       2.8170      1.00000
     32       2.8170      1.00000
     33       2.8171      1.00000
     34       2.8171      1.00000
     35       2.8171      1.00000
     36       2.8171      1.00000
     37       3.8901      1.00000
     38       3.8901      1.00000
     39       3.8901      1.00000
     40       3.8901      1.00000
     41       3.8901      1.00000
     42       3.8901      1.00000
     43       5.1505      1.00000
     44       5.1505      1.00000
     45       5.1505      1.00000
     46       5.1505      1.00000
     47       5.1505      1.00000
     48       5.1505      1.00000
     49       6.1642      1.00000
     50       6.1642      1.00000
     51       6.1642      1.00000
     52       6.1642      1.00000
     53       6.1642      1.00000
     54       6.1642      1.00000
     55       7.1044      1.00000
     56       7.1044      1.00000
     57       7.2151      1.00000
     58       7.2151      1.00000
     59       7.2152      1.00000
     60       7.2152      1.00000
     61       9.3075      1.00000
     62       9.3075      1.00000
     63       9.3076      1.00000
     64       9.3076      1.00000
     65      14.7641      0.00000
[...]
      2.513093  1.450936  8.100329     0.084612   -0.000000    0.000000  
     -1.256548  3.627339  8.100329     0.084612   -0.000000    0.000000  
      1.256546  3.627339  8.100329     0.084612   -0.000000    0.000000  
      1.256548  0.725467  1.828226    -0.235246    0.000000    0.000000  
      3.769642  0.725467  1.828226    -0.235246    0.000000    0.000000  
      0.000001  2.901870  1.828226    -0.235246    0.000000    0.000000  
      2.513095  2.901870  1.828226    -0.235246    0.000000    0.000000  
      1.256548  0.725467  6.009628     0.235246   -0.000000   -0.000000  
      3.769642  0.725467  6.009628     0.235246   -0.000000   -0.000000  
      0.000001  2.901870  6.009628     0.235246   -0.000000    0.000000  
      2.513095  2.901870  6.009628     0.235246   -0.000000   -0.000000  
      1.256548  0.725467  0.262475     0.037421   -0.000000    0.000000  
      3.769642  0.725467  0.262475     0.037421   -0.000000    0.000000  
      0.000001  2.901870  0.262475     0.037421   -0.000000    0.000000  
      2.513095  2.901870  0.262475     0.037421   -0.000000    0.000000  
      1.256548  0.725467  4.443877    -0.037421    0.000000   -0.000000  
      3.769642  0.725467  4.443877    -0.037421    0.000000   -0.000000  
      0.000001  2.901870  4.443877    -0.037421    0.000000   -0.000000  
      2.513095  2.901870  4.443877    -0.037421    0.000000   -0.000000  
     -0.000001  1.450936  2.353176    -0.247183    0.000000   -0.000000  
      2.513093  1.450936  2.353176    -0.247183    0.000000    0.000000  
     -1.256548  3.627339  2.353176    -0.247183    0.000000    0.000000  
      1.256546  3.627339  2.353176    -0.247183    0.000000    0.000000  
     -0.000001  1.450936  6.534578     0.247183   -0.000000   -0.000000  
      2.513093  1.450936  6.534578     0.247183   -0.000000   -0.000000  
     -1.256548  3.627339  6.534578     0.247183   -0.000000    0.000000  
      1.256546  3.627339  6.534578     0.247183   -0.000000    0.000000  
 
  92 f  =   11.564535 THz    72.662119 2PiTHz  385.751365 cm-1    47.827091 meV
             X         Y         Z           dx          dy          dz
     -0.000001  1.450936  3.918927     0.000000    0.230190    0.000000  
      2.513093  1.450936  3.918927     0.000000    0.230190    0.000000  
     -1.256548  3.627339  3.918927     0.000000    0.230190    0.000000  
      1.256546  3.627339  3.918927     0.000000    0.230190    0.000000  
     -0.000001  1.450936  8.100329    -0.000000   -0.230190   -0.000000  
      2.513093  1.450936  8.100329    -0.000000   -0.230190   -0.000000  
     -1.256548  3.627339  8.100329    -0.000000   -0.230190   -0.000000  
      1.256546  3.627339  8.100329    -0.000000   -0.230190   -0.000000  
      1.256548  0.725467  1.828226     0.000000    0.097531   -0.000000  
      3.769642  0.725467  1.828226     0.000000    0.097531   -0.000000  
      0.000001  2.901870  1.828226     0.000000    0.097531   -0.000000  
      2.513095  2.901870  1.828226     0.000000    0.097531   -0.000000  
      1.256548  0.725467  6.009628    -0.000000   -0.097531    0.000000  
      3.769642  0.725467  6.009628    -0.000000   -0.097531    0.000000  
      0.000001  2.901870  6.009628    -0.000000   -0.097531    0.000000  
      2.513095  2.901870  6.009628    -0.000000   -0.097531    0.000000  
      1.256548  0.725467  0.262475    -0.000000   -0.206927   -0.000000  
      3.769642  0.725467  0.262475    -0.000000   -0.206927   -0.000000  
      0.000001  2.901870  0.262475    -0.000000   -0.206927   -0.000000  
      2.513095  2.901870  0.262475    -0.000000   -0.206927   -0.000000  
      1.256548  0.725467  4.443877     0.000000    0.206927    0.000000  
      3.769642  0.725467  4.443877     0.000000    0.206927    0.000000  
      0.000001  2.901870  4.443877     0.000000    0.206927    0.000000  
      2.513095  2.901870  4.443877     0.000000    0.206927    0.000000  
     -0.000001  1.450936  2.353176     0.000000    0.140290   -0.000000  
      2.513093  1.450936  2.353176     0.000000    0.140290   -0.000000  
     -1.256548  3.627339  2.353176     0.000000    0.140290    0.000000  
      1.256546  3.627339  2.353176     0.000000    0.140290    0.000000  
     -0.000001  1.450936  6.534578    -0.000000   -0.140290   -0.000000  
      2.513093  1.450936  6.534578    -0.000000   -0.140290   -0.000000  
     -1.256548  3.627339  6.534578    -0.000000   -0.140290    0.000000  
      1.256546  3.627339  6.534578    -0.000000   -0.140290    0.000000  
 
  93 f  =   11.564535 THz    72.662119 2PiTHz  385.751365 cm-1    47.827091 meV
             X         Y         Z           dx          dy          dz
     -0.000001  1.450936  3.918927     0.000000    0.097531   -0.000000  
      2.513093  1.450936  3.918927     0.000000    0.097531    0.000000  
     -1.256548  3.627339  3.918927     0.000000    0.097531   -0.000000  
      1.256546  3.627339  3.918927     0.000000    0.097531   -0.000000  
     -0.000001  1.450936  8.100329    -0.000000   -0.097531    0.000000  
      2.513093  1.450936  8.100329    -0.000000   -0.097531    0.000000  
     -1.256548  3.627339  8.100329    -0.000000   -0.097531   -0.000000  
      1.256546  3.627339  8.100329    -0.000000   -0.097531   -0.000000  
      1.256548  0.725467  1.828226    -0.000000   -0.230190   -0.000000  
      3.769642  0.725467  1.828226    -0.000000   -0.230190   -0.000000  
      0.000001  2.901870  1.828226    -0.000000   -0.230190   -0.000000  
      2.513095  2.901870  1.828226    -0.000000   -0.230190    0.000000  
      1.256548  0.725467  6.009628     0.000000    0.230190    0.000000  
      3.769642  0.725467  6.009628     0.000000    0.230190    0.000000  
      0.000001  2.901870  6.009628     0.000000    0.230190   -0.000000  
      2.513095  2.901870  6.009628     0.000000    0.230190    0.000000  
      1.256548  0.725467  0.262475    -0.000000   -0.140290   -0.000000  
      3.769642  0.725467  0.262475    -0.000000   -0.140290    0.000000  
      0.000001  2.901870  0.262475    -0.000000   -0.140290    0.000000  
      2.513095  2.901870  0.262475    -0.000000   -0.140290   -0.000000  
      1.256548  0.725467  4.443877     0.000000    0.140290    0.000000  
      3.769642  0.725467  4.443877     0.000000    0.140290   -0.000000  
      0.000001  2.901870  4.443877     0.000000    0.140290    0.000000  
      2.513095  2.901870  4.443877     0.000000    0.140290    0.000000  
     -0.000001  1.450936  2.353176    -0.000000   -0.206927   -0.000000  
      2.513093  1.450936  2.353176    -0.000000   -0.206927   -0.000000  
     -1.256548  3.627339  2.353176    -0.000000   -0.206927   -0.000000  
      1.256546  3.627339  2.353176    -0.000000   -0.206927   -0.000000  
     -0.000001  1.450936  6.534578     0.000000    0.206927    0.000000  
      2.513093  1.450936  6.534578     0.000000    0.206927    0.000000  
     -1.256548  3.627339  6.534578     0.000000    0.206927   -0.000000  
      1.256546  3.627339  6.534578     0.000000    0.206927   -0.000000  
 
  94 f  =    0.000001 THz     0.000009 2PiTHz    0.000046 cm-1     0.000006 meV
             X         Y         Z           dx          dy          dz
     -0.000001  1.450936  3.918927     0.001667    0.000907   -0.176767  
      2.513093  1.450936  3.918927     0.001667    0.000907   -0.176767  
     -1.256548  3.627339  3.918927     0.001667    0.000907   -0.176767  
      1.256546  3.627339  3.918927     0.001667    0.000907   -0.176767  
     -0.000001  1.450936  8.100329     0.001667    0.000907   -0.176767  
      2.513093  1.450936  8.100329     0.001667    0.000907   -0.176767  
     -1.256548  3.627339  8.100329     0.001667    0.000907   -0.176767  
      1.256546  3.627339  8.100329     0.001667    0.000907   -0.176767  
      1.256548  0.725467  1.828226     0.001667    0.000907   -0.176767  
      3.769642  0.725467  1.828226     0.001667    0.000907   -0.176767  
      0.000001  2.901870  1.828226     0.001667    0.000907   -0.176767  
      2.513095  2.901870  1.828226     0.001667    0.000907   -0.176767  
      1.256548  0.725467  6.009628     0.001667    0.000907   -0.176767  
      3.769642  0.725467  6.009628     0.001667    0.000907   -0.176767  
      0.000001  2.901870  6.009628     0.001667    0.000907   -0.176767  
      2.513095  2.901870  6.009628     0.001667    0.000907   -0.176767  
      1.256548  0.725467  0.262475     0.001667    0.000907   -0.176767  
      3.769642  0.725467  0.262475     0.001667    0.000907   -0.176767  
      0.000001  2.901870  0.262475     0.001667    0.000907   -0.176767  
      2.513095  2.901870  0.262475     0.001667    0.000907   -0.176767  
      1.256548  0.725467  4.443877     0.001667    0.000907   -0.176767  
      3.769642  0.725467  4.443877     0.001667    0.000907   -0.176767  
      0.000001  2.901870  4.443877     0.001667    0.000907   -0.176767  
      2.513095  2.901870  4.443877     0.001667    0.000907   -0.176767  
     -0.000001  1.450936  2.353176     0.001667    0.000907   -0.176767  
      2.513093  1.450936  2.353176     0.001667    0.000907   -0.176767  
     -1.256548  3.627339  2.353176     0.001667    0.000907   -0.176767  
      1.256546  3.627339  2.353176     0.001667    0.000907   -0.176767  
     -0.000001  1.450936  6.534578     0.001667    0.000907   -0.176767  
      2.513093  1.450936  6.534578     0.001667    0.000907   -0.176767  
     -1.256548  3.627339  6.534578     0.001667    0.000907   -0.176767  
      1.256546  3.627339  6.534578     0.001667    0.000907   -0.176767  
 
  95 f/i=    0.000001 THz     0.000005 2PiTHz    0.000027 cm-1     0.000003 meV
             X         Y         Z           dx          dy          dz
     -0.000001  1.450936  3.918927     0.176663   -0.006138    0.001635  
      2.513093  1.450936  3.918927     0.176663   -0.006138    0.001635  
     -1.256548  3.627339  3.918927     0.176663   -0.006138    0.001635  
      1.256546  3.627339  3.918927     0.176663   -0.006138    0.001635  
     -0.000001  1.450936  8.100329     0.176663   -0.006138    0.001635  
      2.513093  1.450936  8.100329     0.176663   -0.006138    0.001635  
     -1.256548  3.627339  8.100329     0.176663   -0.006138    0.001635  
      1.256546  3.627339  8.100329     0.176663   -0.006138    0.001635  
      1.256548  0.725467  1.828226     0.176663   -0.006138    0.001635  
      3.769642  0.725467  1.828226     0.176663   -0.006138    0.001635  
      0.000001  2.901870  1.828226     0.176663   -0.006138    0.001635  
      2.513095  2.901870  1.828226     0.176663   -0.006138    0.001635  
      1.256548  0.725467  6.009628     0.176663   -0.006138    0.001635  
      3.769642  0.725467  6.009628     0.176663   -0.006138    0.001635  
      0.000001  2.901870  6.009628     0.176663   -0.006138    0.001635  
      2.513095  2.901870  6.009628     0.176663   -0.006138    0.001635  
      1.256548  0.725467  0.262475     0.176663   -0.006138    0.001635  
      3.769642  0.725467  0.262475     0.176663   -0.006138    0.001635  
      0.000001  2.901870  0.262475     0.176663   -0.006138    0.001635  
      2.513095  2.901870  0.262475     0.176663   -0.006138    0.001635  
      1.256548  0.725467  4.443877     0.176663   -0.006138    0.001635  
      3.769642  0.725467  4.443877     0.176663   -0.006138    0.001635  
      0.000001  2.901870  4.443877     0.176663   -0.006138    0.001635  
      2.513095  2.901870  4.443877     0.176663   -0.006138    0.001635  
     -0.000001  1.450936  2.353176     0.176663   -0.006138    0.001635  
      2.513093  1.450936  2.353176     0.176663   -0.006138    0.001635  
     -1.256548  3.627339  2.353176     0.176663   -0.006138    0.001635  
      1.256546  3.627339  2.353176     0.176663   -0.006138    0.001635  
     -0.000001  1.450936  6.534578     0.176663   -0.006138    0.001635  
      2.513093  1.450936  6.534578     0.176663   -0.006138    0.001635  
     -1.256548  3.627339  6.534578     0.176663   -0.006138    0.001635  
      1.256546  3.627339  6.534578     0.176663   -0.006138    0.001635  
 
  96 f/i=    0.000001 THz     0.000009 2PiTHz    0.000049 cm-1     0.000006 meV
             X         Y         Z           dx          dy          dz
     -0.000001  1.450936  3.918927     0.006129    0.176668    0.000964  
      2.513093  1.450936  3.918927     0.006129    0.176668    0.000964  
     -1.256548  3.627339  3.918927     0.006129    0.176668    0.000964  
      1.256546  3.627339  3.918927     0.006129    0.176668    0.000964  
     -0.000001  1.450936  8.100329     0.006129    0.176668    0.000964  
      2.513093  1.450936  8.100329     0.006129    0.176668    0.000964  
     -1.256548  3.627339  8.100329     0.006129    0.176668    0.000964  
      1.256546  3.627339  8.100329     0.006129    0.176668    0.000964  
      1.256548  0.725467  1.828226     0.006129    0.176668    0.000964  
      3.769642  0.725467  1.828226     0.006129    0.176668    0.000964  
      0.000001  2.901870  1.828226     0.006129    0.176668    0.000964  
      2.513095  2.901870  1.828226     0.006129    0.176668    0.000964  
      1.256548  0.725467  6.009628     0.006129    0.176668    0.000964  
      3.769642  0.725467  6.009628     0.006129    0.176668    0.000964  
      0.000001  2.901870  6.009628     0.006129    0.176668    0.000964  
      2.513095  2.901870  6.009628     0.006129    0.176668    0.000964  
      1.256548  0.725467  0.262475     0.006129    0.176668    0.000964  
      3.769642  0.725467  0.262475     0.006129    0.176668    0.000964  
      0.000001  2.901870  0.262475     0.006129    0.176668    0.000964  
      2.513095  2.901870  0.262475     0.006129    0.176668    0.000964  
      1.256548  0.725467  4.443877     0.006129    0.176668    0.000964  
      3.769642  0.725467  4.443877     0.006129    0.176668    0.000964  
      0.000001  2.901870  4.443877     0.006129    0.176668    0.000964  
      2.513095  2.901870  4.443877     0.006129    0.176668    0.000964  
     -0.000001  1.450936  2.353176     0.006129    0.176668    0.000964  
      2.513093  1.450936  2.353176     0.006129    0.176668    0.000964  
     -1.256548  3.627339  2.353176     0.006129    0.176668    0.000964  
      1.256546  3.627339  2.353176     0.006129    0.176668    0.000964  
     -0.000001  1.450936  6.534578     0.006129    0.176668    0.000964  
      2.513093  1.450936  6.534578     0.006129    0.176668    0.000964  
     -1.256548  3.627339  6.534578     0.006129    0.176668    0.000964  
      1.256546  3.627339  6.534578     0.006129    0.176668    0.000964  
 


--------------------------------------------------------------------------------------------------------



 ELASTIC MODULI CONTR FROM IONIC RELAXATION (kBar)
 Direction    XX          YY          ZZ          XY          YZ          ZX
 --------------------------------------------------------------------------------
 XX         -74.7858     60.1572     -1.1109      0.0000      0.0000      0.0000
 YY          60.1572    -74.7858     -1.1109     -0.0000     -0.0000     -0.0000
 ZZ          -1.1109     -1.1109     -0.1687     -0.0000     -0.0000     -0.0000
 XY           0.0000     -0.0000     -0.0000    -67.4715     -0.0000     -0.0000
 YZ           0.0000     -0.0000     -0.0000     -0.0000    -85.1901     -0.0000
 ZX           0.0000     -0.0000     -0.0000     -0.0000     -0.0000    -85.1899
 --------------------------------------------------------------------------------



--------------------------------------------------------------------------------------------------------


     LOOP+:  cpu time   43.8293: real time   43.9038
    4ORBIT:  cpu time    0.0000: real time    0.0000
 


 total charge     
 
# of ion       s       p       d       tot
------------------------------------------
    1        0.830   1.750   0.000   2.579
    2        0.830   1.750   0.000   2.579
    3        0.830   1.750   0.000   2.579
    4        0.830   1.750   0.000   2.579
    5        0.830   1.750   0.000   2.579
    6        0.830   1.750   0.000   2.579
    7        0.830   1.750   0.000   2.579
    8        0.830   1.750   0.000   2.579
    9        0.830   1.750   0.000   2.579
   10        0.830   1.750   0.000   2.579
   11        0.830   1.750   0.000   2.579
   12        0.830   1.750   0.000   2.579
   13        0.830   1.750   0.000   2.579
   14        0.830   1.750   0.000   2.579
   15        0.830   1.750   0.000   2.579
   16        0.830   1.750   0.000   2.579
   17        0.830   1.750   0.000   2.579
   18        0.830   1.750   0.000   2.579
   19        0.830   1.750   0.000   2.579
   20        0.830   1.750   0.000   2.579
   21        0.830   1.750   0.000   2.579
   22        0.830   1.750   0.000   2.579
   23        0.830   1.750   0.000   2.579
   24        0.830   1.750   0.000   2.579
   25        0.830   1.750   0.000   2.579
   26        0.830   1.750   0.000   2.579
   27        0.830   1.750   0.000   2.579
   28        0.830   1.750   0.000   2.579
   29        0.830   1.750   0.000   2.579
   30        0.830   1.750   0.000   2.579
   31        0.830   1.750   0.000   2.579
   32        0.830   1.750   0.000   2.579
--------------------------------------------------
tot         26.556  55.988   0.000  82.544
 


 magnetization (x)
 
# of ion       s       p       d       tot
------------------------------------------
    1       -0.000   0.000   0.000   0.000
    2       -0.000   0.000   0.000   0.000
    3       -0.000   0.000   0.000   0.000
    4       -0.000   0.000   0.000   0.000
    5       -0.000   0.000   0.000   0.000
    6       -0.000   0.000   0.000   0.000
    7       -0.000   0.000   0.000   0.000
    8       -0.000   0.000   0.000   0.000
    9       -0.000   0.000   0.000   0.000
   10       -0.000   0.000   0.000   0.000
   11       -0.000   0.000   0.000   0.000
   12       -0.000   0.000   0.000   0.000
   13       -0.000   0.000   0.000   0.000
   14       -0.000   0.000   0.000   0.000
   15       -0.000   0.000   0.000   0.000
   16       -0.000   0.000   0.000   0.000
   17       -0.000   0.000   0.000   0.000
   18       -0.000   0.000   0.000   0.000
   19       -0.000   0.000   0.000   0.000
   20       -0.000   0.000   0.000   0.000
   21       -0.000   0.000   0.000   0.000
   22       -0.000   0.000   0.000   0.000
   23       -0.000   0.000   0.000   0.000
   24       -0.000   0.000   0.000   0.000
   25       -0.000   0.000   0.000   0.000
   26       -0.000   0.000   0.000   0.000
   27       -0.000   0.000   0.000   0.000
   28       -0.000   0.000   0.000   0.000
   29       -0.000   0.000   0.000   0.000
   30       -0.000   0.000   0.000   0.000
   31       -0.000   0.000   0.000   0.000
   32       -0.000   0.000   0.000   0.000
--------------------------------------------------
tot         -0.000   0.000   0.000   0.000
 
 BZINTS: Fermi energy:  9.995838;128.000000 electrons
         Band energy:  95.021295;  BLOECHL correction:  0.000000

 total amount of memory used by VASP MPI-rank0    50521. kBytes
=======================================================================

   base      :      30000. kBytes
   nonl-proj :       2580. kBytes
   fftplans  :       5716. kBytes
   grid      :       8790. kBytes
   one-center:        196. kBytes
   wavefun   :       3239. kBytes
 
  
  
 General timing and accounting informations for this job:
 ========================================================
  
                  Total CPU time used (sec):       45.374
                            User time (sec):       45.022
                          System time (sec):        0.352
                         Elapsed time (sec):       45.449
  
                   Maximum memory used (kb):      121528.
                   Average memory used (kb):           0.
  
                          Minor page faults:       112695
                          Major page faults:         1240
                 Voluntary context switches:          592
