unknown system                          
            1
     5.026188    0.000000    0.000000
    -2.513094    4.352806    0.000000
     0.000000    0.000000    8.362804
   C 
  32
Direct configuration=     1
   0.16666650  0.33333350  0.46861400
   0.66666650  0.33333350  0.46861400
   0.16666650  0.83333350  0.46861400
   0.66666650  0.83333350  0.46861400
   0.16666650  0.33333350  0.96861400
   0.66666650  0.33333350  0.96861400
   0.16666650  0.83333350  0.96861400
   0.66666650  0.83333350  0.96861400
   0.33333350  0.16666650  0.21861400
   0.83333350  0.16666650  0.21861400
   0.33333350  0.66666650  0.21861400
   0.83333350  0.66666650  0.21861400
   0.33333350  0.16666650  0.71861400
   0.83333350  0.16666650  0.71861400
   0.33333350  0.66666650  0.71861400
   0.83333350  0.66666650  0.71861400
   0.33333350  0.16666650  0.03138600
   0.83333350  0.16666650  0.03138600
   0.33333350  0.66666650  0.03138600
   0.83333350  0.66666650  0.03138600
   0.33333350  0.16666650  0.53138600
   0.83333350  0.16666650  0.53138600
   0.33333350  0.66666650  0.53138600
   0.83333350  0.66666650  0.53138600
   0.16666650  0.33333350  0.28138600
   0.66666650  0.33333350  0.28138600
   0.16666650  0.83333350  0.28138600
   0.66666650  0.83333350  0.28138600
   0.16666650  0.33333350  0.78138600
   0.66666650  0.33333350  0.78138600
   0.16666650  0.83333350  0.78138600
   0.66666650  0.83333350  0.78138600
