    8    8  100    2
  0.5414167E+01  0.3511887E-09  0.3511887E-09  0.3511887E-09  0.1500000E-16
   1.0000000000000000E-004
  CAR 
 unknown system                          
     32     35     28
 
  0.3742002E-15  0.3742002E-15  0.3742002E-15  0.1953125E-02
    1      -11.661950    -11.661976   1.000000   1.000000
    2       -2.600026     -2.600055   1.000000   1.000000
    3       -2.599964     -2.599993   1.000000   1.000000
    4       -2.599964     -2.599993   1.000000   1.000000
    5       -2.599956     -2.599985   1.000000   1.000000
    6       -2.599887     -2.599916   1.000000   1.000000
    7       -2.599886     -2.599915   1.000000   1.000000
    8        3.927020      3.926987   1.000000   1.000000
    9        3.927020      3.926988   1.000000   1.000000
   10        3.927041      3.927009   1.000000   1.000000
   11        3.927074      3.927041   1.000000   1.000000
   12        3.927095      3.927062   1.000000   1.000000
   13        3.927095      3.927063   1.000000   1.000000
   14       10.572660     10.572622   1.000000   1.000000
   15       10.572660     10.572622   1.000000   1.000000
   16       10.572771     10.572733   1.000000   1.000000
   17       15.433426     15.433403   0.000000   0.000000
   18       15.433426     15.433403   0.000000   0.000000
   19       15.433443     15.433420   0.000000   0.000000
   20       15.433456     15.433434   0.000000   0.000000
   21       15.433456     15.433434   0.000000   0.000000
   22       15.433555     15.433532   0.000000   0.000000
   23       16.311082     16.311043   0.000000   0.000000
   24       16.311164     16.311126   0.000000   0.000000
   25       16.311164     16.311126   0.000000   0.000000
   26       25.145048     25.145014   0.000000   0.000000
   27       28.290254     28.290182   0.000000   0.000000
   28       28.290260     28.290205   0.000000   0.000000
 
  0.1250000E+00  0.3742002E-15  0.3742002E-15  0.1171875E-01
    1      -11.512283    -11.512309   1.000000   1.000000
    2       -4.604720     -4.604748   1.000000   1.000000
    3       -2.501329     -2.501358   1.000000   1.000000
    4       -2.501304     -2.501333   1.000000   1.000000
    5       -2.501289     -2.501319   1.000000   1.000000
    6       -2.501225     -2.501254   1.000000   1.000000
    7       -0.453955     -0.453985   1.000000   1.000000
    8        3.601341      3.601310   1.000000   1.000000
    9        3.601367      3.601336   1.000000   1.000000
   10        3.601379      3.601347   1.000000   1.000000
   11        3.601404      3.601372   1.000000   1.000000
   12        4.072671      4.072639   1.000000   1.000000
   13        4.072698      4.072665   1.000000   1.000000
   14        9.979468      9.979431   1.000000   1.000000
   15        9.979530      9.979493   1.000000   1.000000
   16       10.222306     10.222268   1.000000   1.000000
   17       14.975514     14.975490   0.000000   0.000000
   18       16.036982     16.036958   0.000000   0.000000
   19       16.036997     16.036973   0.000000   0.000000
   20       16.037014     16.036990   0.000000   0.000000
   21       16.037071     16.037047   0.000000   0.000000
   22       16.205833     16.205796   0.000000   0.000000
   23       16.232722     16.232700   0.000000   0.000000
   24       17.043342     17.043303   0.000000   0.000000
   25       17.043385     17.043346   0.000000   0.000000
   26       25.207111     25.207076   0.000000   0.000000
   27       27.767613     27.767928   0.000000   0.000000
   28       27.768621     27.770354   0.000000   0.000000
 
  0.2500000E+00  0.3742002E-15  0.3742002E-15  0.1171875E-01
    1      -11.064365    -11.064391   1.000000   1.000000
    2       -6.411099     -6.411127   1.000000   1.000000
    3       -2.230602     -2.230632   1.000000   1.000000
    4       -2.230575     -2.230605   1.000000   1.000000
    5       -2.230560     -2.230589   1.000000   1.000000
    6       -2.230490     -2.230519   1.000000   1.000000
    7        1.756373      1.756342   1.000000   1.000000
    8        2.847079      2.847049   1.000000   1.000000
    9        2.847097      2.847067   1.000000   1.000000
   10        2.847113      2.847082   1.000000   1.000000
   11        2.847129      2.847099   1.000000   1.000000
   12        4.509697      4.509664   1.000000   1.000000
   13        4.509724      4.509691   1.000000   1.000000
   14        8.734894      8.734859   1.000000   1.000000
   15        8.734942      8.734906   1.000000   1.000000
   16        9.237817      9.237781   1.000000   1.000000
   17       14.811810     14.811784   0.000000   0.000000
   18       15.896035     15.895999   0.000000   0.000000
   19       17.437260     17.437240   0.000000   0.000000
   20       17.634217     17.634191   0.000000   0.000000
   21       17.634229     17.634203   0.000000   0.000000
   22       17.634253     17.634227   0.000000   0.000000
   23       17.634302     17.634276   0.000000   0.000000
   24       18.679791     18.679750   0.000000   0.000000
   25       18.679821     18.679780   0.000000   0.000000
   26       24.907848     24.907816   0.000000   0.000000
   27       26.447733     26.447682   0.000000   0.000000
   28       26.447761     26.447709   0.000000   0.000000
 
  0.3750000E+00  0.3742002E-15  0.3742002E-15  0.1171875E-01
    1      -10.321637    -10.321663   1.000000   1.000000
    2       -7.981413     -7.981440   1.000000   1.000000
    3       -1.891800     -1.891831   1.000000   1.000000
    4       -1.891770     -1.891800   1.000000   1.000000
    5       -1.891752     -1.891782   1.000000   1.000000
    6       -1.891673     -1.891704   1.000000   1.000000
    7        2.089201      2.089172   1.000000   1.000000
    8        2.089210      2.089181   1.000000   1.000000
    9        2.089234      2.089206   1.000000   1.000000
   10        2.089241      2.089212   1.000000   1.000000
   11        3.934921      3.934888   1.000000   1.000000
   12        5.228382      5.228349   1.000000   1.000000
   13        5.228411      5.228378   1.000000   1.000000
   14        7.406970      7.406935   1.000000   1.000000
   15        7.407008      7.406973   1.000000   1.000000
   16        7.778352      7.778317   1.000000   1.000000
   17       14.889160     14.889133   0.000000   0.000000
   18       15.508005     15.507972   0.000000   0.000000
   19       19.088986     19.088965   0.000000   0.000000
   20       19.782497     19.782468   0.000000   0.000000
   21       19.782506     19.782478   0.000000   0.000000
   22       19.782542     19.782514   0.000000   0.000000
   23       19.782586     19.782557   0.000000   0.000000
   24       20.648063     20.648020   0.000000   0.000000
   25       20.648087     20.648044   0.000000   0.000000
   26       23.380245     23.380219   0.000000   0.000000
   27       24.669016     24.668967   0.000000   0.000000
   28       24.669039     24.668991   0.000000   0.000000
 
  0.5000000E+00  0.3742002E-15  0.3742002E-15  0.5859375E-02
    1       -9.290588     -9.290614   1.000000   1.000000
    2       -9.290483     -9.290510   1.000000   1.000000
    3       -1.718280     -1.718311   1.000000   1.000000
    4       -1.718247     -1.718278   1.000000   1.000000
    5       -1.718228     -1.718259   1.000000   1.000000
    6       -1.718144     -1.718174   1.000000   1.000000
    7        1.757441      1.757413   1.000000   1.000000
    8        1.757444      1.757416   1.000000   1.000000
    9        1.757476      1.757448   1.000000   1.000000
   10        1.757478      1.757450   1.000000   1.000000
   11        5.973441      5.973406   1.000000   1.000000
   12        5.973476      5.973441   1.000000   1.000000
   13        6.205662      6.205628   1.000000   1.000000
   14        6.205695      6.205661   1.000000   1.000000
   15        6.205783      6.205749   1.000000   1.000000
   16        6.205816      6.205782   1.000000   1.000000
   17       15.140516     15.140486   0.000000   0.000000
   18       15.140581     15.140551   0.000000   0.000000
   19       21.157043     21.157021   0.000000   0.000000
   20       21.157078     21.157056   0.000000   0.000000
   21       21.444004     21.443975   0.000000   0.000000
   22       21.444010     21.443981   0.000000   0.000000
   23       21.444083     21.444054   0.000000   0.000000
   24       21.444124     21.444095   0.000000   0.000000
   25       22.677869     22.677823   0.000000   0.000000
   26       22.677890     22.677844   0.000000   0.000000
   27       22.677893     22.677847   0.000000   0.000000
   28       22.677914     22.677868   0.000000   0.000000
 
  0.1250000E+00  0.1250000E+00  0.3742002E-15  0.2343750E-01
    1      -11.362827    -11.362853   1.000000   1.000000
    2       -4.481636     -4.481664   1.000000   1.000000
    3       -4.481592     -4.481621   1.000000   1.000000
    4       -2.492040     -2.492069   1.000000   1.000000
    5       -2.334067     -2.334096   1.000000   1.000000
    6       -0.408597     -0.408627   1.000000   1.000000
    7       -0.408562     -0.408593   1.000000   1.000000
    8        2.583678      2.583648   1.000000   1.000000
    9        3.710084      3.710052   1.000000   1.000000
   10        3.710097      3.710065   1.000000   1.000000
   11        3.815421      3.815389   1.000000   1.000000
   12        3.815473      3.815441   1.000000   1.000000
   13        4.179223      4.179191   1.000000   1.000000
   14        9.090433      9.090397   1.000000   1.000000
   15        9.428814      9.428777   1.000000   1.000000
   16       10.385741     10.385704   1.000000   1.000000
   17       15.599346     15.599321   0.000000   0.000000
   18       15.599368     15.599343   0.000000   0.000000
   19       15.671318     15.671295   0.000000   0.000000
   20       16.623716     16.623677   0.000000   0.000000
   21       16.811224     16.811202   0.000000   0.000000
   22       16.811276     16.811253   0.000000   0.000000
   23       17.210897     17.210859   0.000000   0.000000
   24       17.428461     17.428435   0.000000   0.000000
   25       17.518324     17.518285   0.000000   0.000000
   26       25.305482     25.305447   0.000000   0.000000
   27       27.219075     27.219043   0.000000   0.000000
   28       27.219121     27.219123   0.000000   0.000000
 
  0.2500000E+00  0.1250000E+00  0.3742002E-15  0.4687500E-01
    1      -10.915569    -10.915595   1.000000   1.000000
    2       -6.275921     -6.275948   1.000000   1.000000
    3       -4.123015     -4.123044   1.000000   1.000000
    4       -2.405985     -2.406015   1.000000   1.000000
    5       -1.972242     -1.972272   1.000000   1.000000
    6       -0.337690     -0.337720   1.000000   1.000000
    7        1.555339      1.555311   1.000000   1.000000
    8        1.669525      1.669493   1.000000   1.000000
    9        2.852519      2.852489   1.000000   1.000000
   10        3.276002      3.275972   1.000000   1.000000
   11        4.107500      4.107468   1.000000   1.000000
   12        4.122416      4.122384   1.000000   1.000000
   13        4.399347      4.399315   1.000000   1.000000
   14        7.769408      7.769373   1.000000   1.000000
   15        8.239792      8.239757   1.000000   1.000000
   16        9.775950      9.775913   1.000000   1.000000
   17       15.447397     15.447371   0.000000   0.000000
   18       16.497369     16.497344   0.000000   0.000000
   19       16.497938     16.497901   0.000000   0.000000
   20       17.239605     17.239577   0.000000   0.000000
   21       17.976758     17.976737   0.000000   0.000000
   22       18.337209     18.337184   0.000000   0.000000
   23       18.658086     18.658046   0.000000   0.000000
   24       18.753610     18.753569   0.000000   0.000000
   25       19.470487     19.470459   0.000000   0.000000
   26       25.118941     25.118907   0.000000   0.000000
   27       25.728477     25.728430   0.000000   0.000000
   28       25.815696     25.815647   0.000000   0.000000
 
  0.3750000E+00  0.1250000E+00  0.3742002E-15  0.4687500E-01
    1      -10.174136    -10.174162   1.000000   1.000000
    2       -7.839786     -7.839813   1.000000   1.000000
    3       -3.572436     -3.572465   1.000000   1.000000
    4       -2.488564     -2.488594   1.000000   1.000000
    5       -1.448554     -1.448584   1.000000   1.000000
    6       -0.442493     -0.442524   1.000000   1.000000
    7        0.979737      0.979710   1.000000   1.000000
    8        1.892517      1.892488   1.000000   1.000000
    9        2.934876      2.934846   1.000000   1.000000
   10        3.518525      3.518492   1.000000   1.000000
   11        3.611673      3.611642   1.000000   1.000000
   12        4.819799      4.819766   1.000000   1.000000
   13        5.454639      5.454606   1.000000   1.000000
   14        6.383904      6.383870   1.000000   1.000000
   15        6.945800      6.945766   1.000000   1.000000
   16        8.526432      8.526396   1.000000   1.000000
   17       15.528799     15.528770   0.000000   0.000000
   18       16.132699     16.132665   0.000000   0.000000
   19       18.239074     18.239047   0.000000   0.000000
   20       19.466932     19.466901   0.000000   0.000000
   21       19.576047     19.576025   0.000000   0.000000
   22       20.260226     20.260199   0.000000   0.000000
   23       20.410008     20.409966   0.000000   0.000000
   24       20.614137     20.614095   0.000000   0.000000
   25       21.764353     21.764322   0.000000   0.000000
   26       23.716620     23.716592   0.000000   0.000000
   27       23.785409     23.785368   0.000000   0.000000
   28       24.091196     24.091150   0.000000   0.000000
 
  0.5000000E+00  0.1250000E+00  0.3742002E-15  0.2343750E-01
    1       -9.145248     -9.145274   1.000000   1.000000
    2       -9.145143     -9.145170   1.000000   1.000000
    3       -2.943897     -2.943926   1.000000   1.000000
    4       -2.943805     -2.943835   1.000000   1.000000
    5       -0.868091     -0.868121   1.000000   1.000000
    6       -0.868045     -0.868076   1.000000   1.000000
    7        1.155755      1.155728   1.000000   1.000000
    8        1.155788      1.155760   1.000000   1.000000
    9        3.098008      3.097978   1.000000   1.000000
   10        3.098052      3.098022   1.000000   1.000000
   11        5.015626      5.015593   1.000000   1.000000
   12        5.015680      5.015646   1.000000   1.000000
   13        5.775219      5.775185   1.000000   1.000000
   14        5.775254      5.775221   1.000000   1.000000
   15        6.960629      6.960594   1.000000   1.000000
   16        6.960684      6.960649   1.000000   1.000000
   17       15.777845     15.777814   0.000000   0.000000
   18       15.777909     15.777878   0.000000   0.000000
   19       20.277518     20.277490   0.000000   0.000000
   20       20.277567     20.277538   0.000000   0.000000
   21       21.563901     21.563877   0.000000   0.000000
   22       21.563944     21.563920   0.000000   0.000000
   23       21.836109     21.836075   0.000000   0.000000
   24       21.836146     21.836112   0.000000   0.000000
   25       22.260196     22.260153   0.000000   0.000000
   26       22.260217     22.260173   0.000000   0.000000
   27       22.679669     22.679624   0.000000   0.000000
   28       22.679693     22.679648   0.000000   0.000000
 
  0.2500000E+00  0.2500000E+00  0.3742002E-15  0.2343750E-01
    1      -10.470489    -10.470515   1.000000   1.000000
    2       -5.876029     -5.876056   1.000000   1.000000
    3       -5.875987     -5.876014   1.000000   1.000000
    4       -2.745994     -2.746024   1.000000   1.000000
    5       -1.539163     -1.539192   1.000000   1.000000
    6        0.711091      0.711064   1.000000   1.000000
    7        1.318554      1.318523   1.000000   1.000000
    8        1.318557      1.318526   1.000000   1.000000
    9        3.202978      3.202948   1.000000   1.000000
   10        3.202979      3.202949   1.000000   1.000000
   11        4.284774      4.284742   1.000000   1.000000
   12        4.284867      4.284836   1.000000   1.000000
   13        4.912034      4.912000   1.000000   1.000000
   14        6.437160      6.437126   1.000000   1.000000
   15        7.131278      7.131244   1.000000   1.000000
   16        9.779488      9.779451   1.000000   1.000000
   17       16.378492     16.378468   0.000000   0.000000
   18       17.098002     17.097973   0.000000   0.000000
   19       17.098011     17.097981   0.000000   0.000000
   20       17.532770     17.532731   0.000000   0.000000
   21       18.975103     18.975065   0.000000   0.000000
   22       19.113450     19.113410   0.000000   0.000000
   23       19.379704     19.379680   0.000000   0.000000
   24       19.379763     19.379739   0.000000   0.000000
   25       21.719331     21.719299   0.000000   0.000000
   26       24.227471     24.227427   0.000000   0.000000
   27       24.227551     24.227507   0.000000   0.000000
   28       25.331245     25.331210   0.000000   0.000000
 
  0.3750000E+00  0.2500000E+00  0.3742002E-15  0.4687500E-01
    1       -9.733163     -9.733190   1.000000   1.000000
    2       -7.418126     -7.418153   1.000000   1.000000
    3       -5.231189     -5.231217   1.000000   1.000000
    4       -3.473874     -3.473903   1.000000   1.000000
    5       -0.920924     -0.920954   1.000000   1.000000
    6        0.652373      0.652342   1.000000   1.000000
    7        0.654498      0.654471   1.000000   1.000000
    8        2.147772      2.147743   1.000000   1.000000
    9        2.638287      2.638255   1.000000   1.000000
   10        3.854520      3.854489   1.000000   1.000000
   11        4.438817      4.438785   1.000000   1.000000
   12        5.064799      5.064766   1.000000   1.000000
   13        5.100015      5.099982   1.000000   1.000000
   14        5.843305      5.843272   1.000000   1.000000
   15        5.895020      5.894987   1.000000   1.000000
   16        8.964669      8.964632   1.000000   1.000000
   17       17.165906     17.165874   0.000000   0.000000
   18       17.384058     17.384033   0.000000   0.000000
   19       17.615119     17.615082   0.000000   0.000000
   20       19.327087     19.327054   0.000000   0.000000
   21       19.916659     19.916620   0.000000   0.000000
   22       20.593185     20.593145   0.000000   0.000000
   23       20.606467     20.606440   0.000000   0.000000
   24       20.738764     20.738740   0.000000   0.000000
   25       22.773997     22.773955   0.000000   0.000000
   26       22.900066     22.900027   0.000000   0.000000
   27       23.790085     23.790047   0.000000   0.000000
   28       24.357463     24.357534   0.000000   0.000000
 
  0.5000000E+00  0.2500000E+00  0.3742002E-15  0.2343750E-01
    1       -8.711344     -8.711370   1.000000   1.000000
    2       -8.711239     -8.711266   1.000000   1.000000
    3       -4.390224     -4.390253   1.000000   1.000000
    4       -4.390123     -4.390151   1.000000   1.000000
    5       -0.156500     -0.156531   1.000000   1.000000
    6       -0.156460     -0.156490   1.000000   1.000000
    7        1.227005      1.226977   1.000000   1.000000
    8        1.227046      1.227018   1.000000   1.000000
    9        3.842111      3.842079   1.000000   1.000000
   10        3.842162      3.842130   1.000000   1.000000
   11        4.770697      4.770665   1.000000   1.000000
   12        4.770736      4.770704   1.000000   1.000000
   13        4.789540      4.789508   1.000000   1.000000
   14        4.789597      4.789565   1.000000   1.000000
   15        7.542241      7.542206   1.000000   1.000000
   16        7.542296      7.542261   1.000000   1.000000
   17       17.371323     17.371288   0.000000   0.000000
   18       17.371384     17.371350   0.000000   0.000000
   19       19.163709     19.163681   0.000000   0.000000
   20       19.163755     19.163726   0.000000   0.000000
   21       21.013557     21.013519   0.000000   0.000000
   22       21.013607     21.013569   0.000000   0.000000
   23       21.762523     21.762486   0.000000   0.000000
   24       21.762556     21.762518   0.000000   0.000000
   25       22.680057     22.680013   0.000000   0.000000
   26       22.680086     22.680043   0.000000   0.000000
   27       22.862005     22.861977   0.000000   0.000000
   28       22.862035     22.862007   0.000000   0.000000
 
  0.3750000E+00  0.3750000E+00  0.3742002E-15  0.2343750E-01
    1       -9.003782     -9.003808   1.000000   1.000000
    2       -6.727338     -6.727365   1.000000   1.000000
    3       -6.727297     -6.727324   1.000000   1.000000
    4       -4.664791     -4.664819   1.000000   1.000000
    5       -0.226704     -0.226734   1.000000   1.000000
    6        0.991921      0.991893   1.000000   1.000000
    7        1.623027      1.622996   1.000000   1.000000
    8        1.623030      1.622998   1.000000   1.000000
    9        2.745896      2.745866   1.000000   1.000000
   10        2.745901      2.745871   1.000000   1.000000
   11        3.832915      3.832883   1.000000   1.000000
   12        4.707326      4.707295   1.000000   1.000000
   13        6.035549      6.035515   1.000000   1.000000
   14        6.196864      6.196830   1.000000   1.000000
   15        6.196971      6.196937   1.000000   1.000000
   16        8.727296      8.727260   1.000000   1.000000
   17       17.486021     17.485994   0.000000   0.000000
   18       19.005312     19.005271   0.000000   0.000000
   19       19.328026     19.327990   0.000000   0.000000
   20       19.328026     19.327991   0.000000   0.000000
   21       19.585351     19.585315   0.000000   0.000000
   22       20.231407     20.231376   0.000000   0.000000
   23       20.231459     20.231428   0.000000   0.000000
   24       21.078747     21.078709   0.000000   0.000000
   25       23.274654     23.274609   0.000000   0.000000
   26       23.289144     23.289110   0.000000   0.000000
   27       23.289172     23.289139   0.000000   0.000000
   28       24.865112     24.865058   0.000000   0.000000
 
  0.5000000E+00  0.3750000E+00  0.3742002E-15  0.2343750E-01
    1       -7.995918     -7.995945   1.000000   1.000000
    2       -7.995813     -7.995840   1.000000   1.000000
    3       -5.791761     -5.791789   1.000000   1.000000
    4       -5.791657     -5.791685   1.000000   1.000000
    5        0.636312      0.636281   1.000000   1.000000
    6        0.636354      0.636324   1.000000   1.000000
    7        1.741332      1.741303   1.000000   1.000000
    8        1.741375      1.741346   1.000000   1.000000
    9        2.665417      2.665386   1.000000   1.000000
   10        2.665466      2.665434   1.000000   1.000000
   11        3.620774      3.620743   1.000000   1.000000
   12        3.620816      3.620785   1.000000   1.000000
   13        6.349808      6.349773   1.000000   1.000000
   14        6.349868      6.349834   1.000000   1.000000
   15        7.744349      7.744313   1.000000   1.000000
   16        7.744404      7.744369   1.000000   1.000000
   17       18.579103     18.579074   0.000000   0.000000
   18       18.579149     18.579120   0.000000   0.000000
   19       19.353155     19.353117   0.000000   0.000000
   20       19.353213     19.353175   0.000000   0.000000
   21       19.708309     19.708275   0.000000   0.000000
   22       19.708358     19.708324   0.000000   0.000000
   23       21.575946     21.575905   0.000000   0.000000
   24       21.575985     21.575944   0.000000   0.000000
   25       22.800234     22.800193   0.000000   0.000000
   26       22.800279     22.800237   0.000000   0.000000
   27       24.367040     24.367007   0.000000   0.000000
   28       24.367070     24.367037   0.000000   0.000000
 
  0.5000000E+00  0.5000000E+00  0.3742002E-15  0.5859375E-02
    1       -7.013363     -7.013390   1.000000   1.000000
    2       -7.013219     -7.013246   1.000000   1.000000
    3       -7.013217     -7.013244   1.000000   1.000000
    4       -7.013154     -7.013181   1.000000   1.000000
    5        1.579535      1.579504   1.000000   1.000000
    6        1.579538      1.579507   1.000000   1.000000
    7        1.579581      1.579551   1.000000   1.000000
    8        1.579585      1.579554   1.000000   1.000000
    9        2.569728      2.569699   1.000000   1.000000
   10        2.569760      2.569730   1.000000   1.000000
   11        2.569769      2.569739   1.000000   1.000000
   12        2.569813      2.569783   1.000000   1.000000
   13        7.391202      7.391166   1.000000   1.000000
   14        7.391246      7.391210   1.000000   1.000000
   15        7.391290      7.391255   1.000000   1.000000
   16        7.391377      7.391341   1.000000   1.000000
   17       18.769518     18.769487   0.000000   0.000000
   18       18.769590     18.769559   0.000000   0.000000
   19       18.769606     18.769575   0.000000   0.000000
   20       18.769642     18.769611   0.000000   0.000000
   21       20.971200     20.971157   0.000000   0.000000
   22       20.971202     20.971160   0.000000   0.000000
   23       20.971253     20.971210   0.000000   0.000000
   24       20.971259     20.971216   0.000000   0.000000
   25       23.523410     23.523370   0.000000   0.000000
   26       23.523452     23.523413   0.000000   0.000000
   27       23.523492     23.523453   0.000000   0.000000
   28       23.523544     23.523505   0.000000   0.000000
 
  0.1250000E+00  0.1250000E+00  0.1250000E+00  0.1562500E-01
    1      -11.213585    -11.213611   1.000000   1.000000
    2       -4.363034     -4.363062   1.000000   1.000000
    3       -4.362965     -4.362994   1.000000   1.000000
    4       -4.362965     -4.362994   1.000000   1.000000
    5       -0.404859     -0.404889   1.000000   1.000000
    6       -0.404813     -0.404843   1.000000   1.000000
    7       -0.404813     -0.404843   1.000000   1.000000
    8        2.816017      2.815987   1.000000   1.000000
    9        2.816069      2.816039   1.000000   1.000000
   10        2.816069      2.816039   1.000000   1.000000
   11        4.320889      4.320856   1.000000   1.000000
   12        4.320889      4.320856   1.000000   1.000000
   13        4.320933      4.320900   1.000000   1.000000
   14        8.047343      8.047308   1.000000   1.000000
   15        9.878058      9.878021   1.000000   1.000000
   16        9.878058      9.878021   1.000000   1.000000
   17       15.661525     15.661501   0.000000   0.000000
   18       15.661525     15.661501   0.000000   0.000000
   19       15.661570     15.661546   0.000000   0.000000
   20       17.227191     17.227152   0.000000   0.000000
   21       17.227191     17.227152   0.000000   0.000000
   22       17.726648     17.726609   0.000000   0.000000
   23       17.767174     17.767149   0.000000   0.000000
   24       17.767174     17.767149   0.000000   0.000000
   25       17.767235     17.767210   0.000000   0.000000
   26       25.431311     25.431276   0.000000   0.000000
   27       27.013007     27.012956   0.000000   0.000000
   28       27.013185     27.012963   0.000000   0.000000
 
  0.2500000E+00  0.1250000E+00  0.1250000E+00  0.4687500E-01
    1      -10.767028    -10.767054   1.000000   1.000000
    2       -6.142407     -6.142434   1.000000   1.000000
    3       -4.025262     -4.025291   1.000000   1.000000
    4       -4.025210     -4.025239   1.000000   1.000000
    5       -0.523701     -0.523731   1.000000   1.000000
    6       -0.523686     -0.523717   1.000000   1.000000
    7        1.418069      1.418037   1.000000   1.000000
    8        1.992976      1.992947   1.000000   1.000000
    9        1.993027      1.992998   1.000000   1.000000
   10        3.617110      3.617079   1.000000   1.000000
   11        4.266872      4.266839   1.000000   1.000000
   12        4.266889      4.266856   1.000000   1.000000
   13        4.745522      4.745489   1.000000   1.000000
   14        6.648639      6.648605   1.000000   1.000000
   15        8.761249      8.761213   1.000000   1.000000
   16        9.573278      9.573241   1.000000   1.000000
   17       15.713104     15.713078   0.000000   0.000000
   18       16.562681     16.562656   0.000000   0.000000
   19       16.562711     16.562686   0.000000   0.000000
   20       16.978626     16.978588   0.000000   0.000000
   21       18.642296     18.642255   0.000000   0.000000
   22       18.707199     18.707175   0.000000   0.000000
   23       18.758489     18.758450   0.000000   0.000000
   24       19.708340     19.708312   0.000000   0.000000
   25       19.708372     19.708344   0.000000   0.000000
   26       25.344997     25.344959   0.000000   0.000000
   27       25.654170     25.653665   0.000000   0.000000
   28       25.672898     25.679640   0.000000   0.000000
 
  0.3750000E+00  0.1250000E+00  0.1250000E+00  0.4687500E-01
    1      -10.026909    -10.026935   1.000000   1.000000
    2       -7.698916     -7.698943   1.000000   1.000000
    3       -3.554391     -3.554420   1.000000   1.000000
    4       -3.554325     -3.554354   1.000000   1.000000
    5       -0.970555     -0.970584   1.000000   1.000000
    6       -0.970541     -0.970570   1.000000   1.000000
    7        1.729303      1.729275   1.000000   1.000000
    8        1.729380      1.729352   1.000000   1.000000
    9        2.802050      2.802018   1.000000   1.000000
   10        3.858296      3.858265   1.000000   1.000000
   11        3.858298      3.858266   1.000000   1.000000
   12        5.109590      5.109557   1.000000   1.000000
   13        5.268137      5.268104   1.000000   1.000000
   14        5.442226      5.442192   1.000000   1.000000
   15        7.521238      7.521203   1.000000   1.000000
   16        8.468180      8.468144   1.000000   1.000000
   17       15.900086     15.900057   0.000000   0.000000
   18       16.594049     16.594014   0.000000   0.000000