       N       E                     dE             d eps       ncg     rms          rms(c)
DAV:   1    -0.478708090401E+02   -0.47871E+02   -0.15350E+04  3984   0.927E+02
DAV:   2    -0.179379520341E+03   -0.13151E+03   -0.12520E+03  5148   0.227E+02
DAV:   3    -0.184665258523E+03   -0.52857E+01   -0.52415E+01  5264   0.403E+01
DAV:   4    -0.184746054214E+03   -0.80796E-01   -0.80523E-01  4996   0.528E+00
DAV:   5    -0.184748122546E+03   -0.20683E-02   -0.20671E-02  5260   0.792E-01    0.483E+01
DAV:   6    -0.102463940070E+03    0.82284E+02   -0.46218E+01  4292   0.334E+01    0.257E+01
DAV:   7    -0.722775493655E+02    0.30186E+02   -0.59591E+01  4656   0.382E+01    0.347E+00
DAV:   8    -0.725305268855E+02   -0.25298E+00   -0.18225E+00  4808   0.651E+00    0.130E+00
DAV:   9    -0.725704202278E+02   -0.39893E-01   -0.13450E-01  4596   0.257E+00    0.242E-01
DAV:  10    -0.725814566145E+02   -0.11036E-01   -0.15200E-02  4592   0.894E-01    0.847E-02
DAV:  11    -0.725820442168E+02   -0.58760E-03   -0.36615E-04  4800   0.166E-01    0.518E-02
DAV:  12    -0.725823640831E+02   -0.31987E-03   -0.17095E-04  4416   0.108E-01    0.104E-02
DAV:  13    -0.725823727198E+02   -0.86367E-05   -0.10471E-05  4736   0.216E-02    0.190E-03
DAV:  14    -0.725823733837E+02   -0.66391E-06   -0.38505E-07  3104   0.483E-03
   1 F= -.65823862E+02 E0= -.65823862E+02  d E =-.658239E+02  mag=     0.0000
       N       E                     dE             d eps       ncg     rms          rms(c)
DAV:   1    -0.725788510884E+02    0.35216E-02   -0.38045E-04  4376   0.123E-01    0.150E-02
DAV:   2    -0.725788476055E+02    0.34829E-05   -0.70525E-06  4732   0.135E-02    0.822E-03
DAV:   3    -0.725788463610E+02    0.12445E-05   -0.27370E-06  4032   0.840E-03    0.669E-04
DAV:   4    -0.725788464406E+02   -0.79627E-07   -0.63531E-08  2488   0.195E-03
   2 F= -.65824553E+02 E0= -.65824553E+02  d E =-.690401E-03  mag=    -0.0000
       N       E                     dE             d eps       ncg     rms          rms(c)
DAV:   1    -0.725679757247E+02    0.10871E-01   -0.34228E-03  4296   0.371E-01    0.455E-02
DAV:   2    -0.725679390786E+02    0.36646E-04   -0.64154E-05  4832   0.408E-02    0.249E-02
DAV:   3    -0.725679233153E+02    0.15763E-04   -0.25703E-05  4292   0.255E-02    0.153E-03
DAV:   4    -0.725679235037E+02   -0.18838E-06   -0.30806E-07  2552   0.318E-03
   3 F= -.65826271E+02 E0= -.65826271E+02  d E =-.240897E-02  mag=     0.0000
       N       E                     dE             d eps       ncg     rms          rms(c)
DAV:   1    -0.725447531447E+02    0.23170E-01   -0.13736E-02  4264   0.743E-01    0.910E-02
DAV:   2    -0.725446043776E+02    0.14877E-03   -0.25790E-04  4792   0.818E-02    0.497E-02
DAV:   3    -0.725445386661E+02    0.65712E-04   -0.10300E-04  4216   0.511E-02    0.305E-03
DAV:   4    -0.725445388992E+02   -0.23306E-06   -0.12647E-06  3536   0.638E-03
   4 F= -.65828122E+02 E0= -.65828122E+02  d E =-.426004E-02  mag=    -0.0000
       N       E                     dE             d eps       ncg     rms          rms(c)
DAV:   1    -0.725354527011E+02    0.90860E-02   -0.18698E-03  4256   0.274E-01    0.335E-02
DAV:   2    -0.725354330073E+02    0.19694E-04   -0.34773E-05  4760   0.301E-02    0.183E-02
DAV:   3    -0.725354247645E+02    0.82428E-05   -0.14004E-05  4276   0.189E-02    0.122E-03
DAV:   4    -0.725354249125E+02   -0.14807E-06   -0.17253E-07  2304   0.243E-03
   5 F= -.65828269E+02 E0= -.65828269E+02  d E =-.440649E-02  mag=    -0.0000
