PROCAR lm decomposed
# of k-points:   35         # of bands:   28         # of ions:    8

 k-point     1 :    0.00000000 0.00000000 0.00000000     weight = 0.00195313

band     1 # energy  -11.66195024 # occ.  1.00000000
 
ion      s     py     pz     px    dxy    dyz    dz2    dxz  x2-y2    tot
    1  0.072  0.000  0.000  0.000  0.000  0.000  0.000  0.000  0.000  0.072
    2  0.072  0.000  0.000  0.000  0.000  0.000  0.000  0.000  0.000  0.072
    3  0.072  0.000  0.000  0.000  0.000  0.000  0.000  0.000  0.000  0.072
    4  0.072  0.000  0.000  0.000  0.000  0.000  0.000  0.000  0.000  0.072
    5  0.072  0.000  0.000  0.000  0.000  0.000  0.000  0.000  0.000  0.072
    6  0.072  0.000  0.000  0.000  0.000  0.000  0.000  0.000  0.000  0.072
    7  0.072  0.000  0.000  0.000  0.000  0.000  0.000  0.000  0.000  0.072
    8  0.072  0.000  0.000  0.000  0.000  0.000  0.000  0.000  0.000  0.072
tot    0.572  0.000  0.000  0.000  0.000  0.000  0.000  0.000  0.000  0.572
 
band     2 # energy   -2.60002575 # occ.  1.00000000
 
ion      s     py     pz     px    dxy    dyz    dz2    dxz  x2-y2    tot
    1  0.296  0.001  0.001  0.001  0.000  0.000  0.000  0.000  0.000  0.299
    2  0.002  0.019  0.019  0.019  0.000  0.000  0.000  0.000  0.000  0.058
    3  0.019  0.019  0.019  0.019  0.000  0.000  0.000  0.000  0.000  0.075
    4  0.002  0.019  0.019  0.019  0.000  0.000  0.000  0.000  0.000  0.058
    5  0.002  0.019  0.019  0.019  0.000  0.000  0.000  0.000  0.000  0.058
    6  0.033  0.001  0.001  0.001  0.000  0.000  0.000  0.000  0.000  0.037
    7  0.032  0.001  0.001  0.001  0.000  0.000  0.000  0.000  0.000  0.036
    8  0.033  0.001  0.001  0.001  0.000  0.000  0.000  0.000  0.000  0.037
tot    0.420  0.079  0.080  0.079  0.000  0.000  0.000  0.000  0.000  0.658
 
band     3 # energy   -2.59996423 # occ.  1.00000000
 
ion      s     py     pz     px    dxy    dyz    dz2    dxz  x2-y2    tot
    1  0.000  0.028  0.000  0.028  0.000  0.000  0.000  0.000  0.000  0.057
    2  0.200  0.001  0.000  0.001  0.000  0.000  0.000  0.000  0.000  0.203
    3  0.000  0.001  0.000  0.001  0.000  0.000  0.000  0.000  0.000  0.003
    4  0.000  0.001  0.000  0.001  0.000  0.000  0.000  0.000  0.000  0.003
    5  0.200  0.001  0.000  0.001  0.000  0.000  0.000  0.000  0.000  0.203
    6  0.010  0.028  0.000  0.028  0.000  0.000  0.000  0.000  0.000  0.067
    7  0.000  0.028  0.000  0.028  0.000  0.000  0.000  0.000  0.000  0.057
    8  0.010  0.028  0.000  0.028  0.000  0.000  0.000  0.000  0.000  0.067
tot    0.420  0.119  0.000  0.119  0.000  0.000  0.000  0.000  0.000  0.658
 
band     4 # energy   -2.59996374 # occ.  1.00000000
 
ion      s     py     pz     px    dxy    dyz    dz2    dxz  x2-y2    tot
    1  0.000  0.011  0.035  0.011  0.000  0.000  0.000  0.000  0.000  0.057
    2  0.062  0.000  0.002  0.000  0.000  0.000  0.000  0.000  0.000  0.065
    3  0.001  0.000  0.002  0.000  0.000  0.000  0.000  0.000  0.000  0.004
    4  0.275  0.000  0.002  0.000  0.000  0.000  0.000  0.000  0.000  0.278
    5  0.062  0.000  0.002  0.000  0.000  0.000  0.000  0.000  0.000  0.065
    6  0.004  0.011  0.035  0.011  0.000  0.000  0.000  0.000  0.000  0.060
    7  0.013  0.011  0.035  0.011  0.000  0.000  0.000  0.000  0.000  0.070
    8  0.004  0.011  0.035  0.011  0.000  0.000  0.000  0.000  0.000  0.060
tot    0.420  0.045  0.149  0.045  0.000  0.000  0.000  0.000  0.000  0.658
 
band     5 # energy   -2.59995581 # occ.  1.00000000
 
ion      s     py     pz     px    dxy    dyz    dz2    dxz  x2-y2    tot
    1  0.019  0.017  0.021  0.017  0.000  0.000  0.000  0.000  0.000  0.075
    2  0.038  0.001  0.001  0.001  0.000  0.000  0.000  0.000  0.000  0.041
    3  0.295  0.001  0.001  0.001  0.000  0.000  0.000  0.000  0.000  0.298
    4  0.024  0.001  0.001  0.001  0.000  0.000  0.000  0.000  0.000  0.028
    5  0.038  0.001  0.001  0.001  0.000  0.000  0.000  0.000  0.000  0.041
    6  0.002  0.017  0.021  0.017  0.000  0.000  0.000  0.000  0.000  0.058
    7  0.003  0.017  0.021  0.017  0.000  0.000  0.000  0.000  0.000  0.059
    8  0.002  0.017  0.021  0.017  0.000  0.000  0.000  0.000  0.000  0.058
tot    0.420  0.074  0.090  0.074  0.000  0.000  0.000  0.000  0.000  0.658
 
band     6 # energy   -2.59988688 # occ.  1.00000000
 
ion      s     py     pz     px    dxy    dyz    dz2    dxz  x2-y2    tot
    1  0.000  0.000  0.002  0.000  0.000  0.000  0.000  0.000  0.000  0.003
    2  0.004  0.010  0.038  0.010  0.000  0.000  0.000  0.000  0.000  0.060
    3  0.000  0.010  0.038  0.010  0.000  0.000  0.000  0.000  0.000  0.057
    4  0.014  0.010  0.038  0.010  0.000  0.000  0.000  0.000  0.000  0.071
    5  0.004  0.010  0.038  0.010  0.000  0.000  0.000  0.000  0.000  0.060
    6  0.066  0.000  0.002  0.000  0.000  0.000  0.000  0.000  0.000  0.069
    7  0.266  0.000  0.002  0.000  0.000  0.000  0.000  0.000  0.000  0.269
    8  0.066  0.000  0.002  0.000  0.000  0.000  0.000  0.000  0.000  0.069
tot    0.420  0.040  0.158  0.040  0.000  0.000  0.000  0.000  0.000  0.658
 
band     7 # energy   -2.59988637 # occ.  1.00000000
 
ion      s     py     pz     px    dxy    dyz    dz2    dxz  x2-y2    tot
    1  0.000  0.001  0.000  0.001  0.000  0.000  0.000  0.000  0.000  0.003
    2  0.010  0.028  0.000  0.028  0.000  0.000  0.000  0.000  0.000  0.067
    3  0.000  0.028  0.000  0.028  0.000  0.000  0.000  0.000  0.000  0.057
    4  0.000  0.028  0.000  0.028  0.000  0.000  0.000  0.000  0.000  0.057
    5  0.010  0.028  0.000  0.028  0.000  0.000  0.000  0.000  0.000  0.067
    6  0.200  0.001  0.000  0.001  0.000  0.000  0.000  0.000  0.000  0.203
    7  0.000  0.001  0.000  0.001  0.000  0.000  0.000  0.000  0.000  0.003
    8  0.200  0.001  0.000  0.001  0.000  0.000  0.000  0.000  0.000  0.203
tot    0.420  0.119  0.000  0.119  0.000  0.000  0.000  0.000  0.000  0.658
 
band     8 # energy    3.92701979 # occ.  1.00000000
 
ion      s     py     pz     px    dxy    dyz    dz2    dxz  x2-y2    tot
    1  0.000  0.083  0.000  0.083  0.000  0.000  0.000  0.000  0.000  0.166
    2  0.000  0.033  0.070  0.017  0.000  0.000  0.000  0.000  0.000  0.120
    3  0.000  0.033  0.000  0.033  0.000  0.000  0.000  0.000  0.000  0.066
    4  0.000  0.017  0.000  0.017  0.000  0.000  0.000  0.000  0.000  0.034
    5  0.000  0.017  0.070  0.033  0.000  0.000  0.000  0.000  0.000  0.120
    6  0.000  0.001  0.003  0.083  0.000  0.000  0.000  0.000  0.000  0.086
    7  0.000  0.001  0.000  0.001  0.000  0.000  0.000  0.000  0.000  0.001
    8  0.000  0.083  0.003  0.001  0.000  0.000  0.000  0.000  0.000  0.086
tot    0.000  0.268  0.145  0.268  0.000  0.000  0.000  0.000  0.000  0.680
 
band     9 # energy    3.92702030 # occ.  1.00000000
 
ion      s     py     pz     px    dxy    dyz    dz2    dxz  x2-y2    tot
    1  0.000  0.030  0.107  0.030  0.000  0.000  0.000  0.000  0.000  0.166
    2  0.000  0.010  0.000  0.051  0.000  0.000  0.000  0.000  0.000  0.061
    3  0.000  0.010  0.047  0.010  0.000  0.000  0.000  0.000  0.000  0.067
    4  0.000  0.051  0.047  0.051  0.000  0.000  0.000  0.000  0.000  0.150
    5  0.000  0.051  0.000  0.010  0.000  0.000  0.000  0.000  0.000  0.061
    6  0.000  0.002  0.000  0.030  0.000  0.000  0.000  0.000  0.000  0.032
    7  0.000  0.002  0.107  0.002  0.000  0.000  0.000  0.000  0.000  0.111
    8  0.000  0.030  0.000  0.002  0.000  0.000  0.000  0.000  0.000  0.032
tot    0.000  0.186  0.308  0.186  0.000  0.000  0.000  0.000  0.000  0.680
 
band    10 # energy    3.92704126 # occ.  1.00000000
 
ion      s     py     pz     px    dxy    dyz    dz2    dxz  x2-y2    tot
    1  0.000  0.055  0.061  0.055  0.000  0.000  0.000  0.000  0.000  0.170
    2  0.000  0.058  0.000  0.000  0.000  0.000  0.000  0.000  0.000  0.058
    3  0.000  0.058  0.055  0.058  0.000  0.000  0.000  0.000  0.000  0.170
    4  0.000  0.000  0.055  0.000  0.000  0.000  0.000  0.000  0.000  0.055
    5  0.000  0.000  0.000  0.058  0.000  0.000  0.000  0.000  0.000  0.058
    6  0.000  0.000  0.000  0.055  0.000  0.000  0.000  0.000  0.000  0.055
    7  0.000  0.000  0.061  0.000  0.000  0.000  0.000  0.000  0.000  0.061
    8  0.000  0.055  0.000  0.000  0.000  0.000  0.000  0.000  0.000  0.055
tot    0.000  0.225  0.231  0.225  0.000  0.000  0.000  0.000  0.000  0.680
 
band    11 # energy    3.92707362 # occ.  1.00000000
 
ion      s     py     pz     px    dxy    dyz    dz2    dxz  x2-y2    tot
    1  0.000  0.000  0.000  0.000  0.000  0.000  0.000  0.000  0.000  0.000
    2  0.000  0.000  0.059  0.056  0.000  0.000  0.000  0.000  0.000  0.114
    3  0.000  0.000  0.000  0.000  0.000  0.000  0.000  0.000  0.000  0.000
    4  0.000  0.056  0.000  0.056  0.000  0.000  0.000  0.000  0.000  0.111
    5  0.000  0.056  0.059  0.000  0.000  0.000  0.000  0.000  0.000  0.114
    6  0.000  0.059  0.053  0.000  0.000  0.000  0.000  0.000  0.000  0.111
    7  0.000  0.059  0.000  0.059  0.000  0.000  0.000  0.000  0.000  0.117
    8  0.000  0.000  0.053  0.059  0.000  0.000  0.000  0.000  0.000  0.111
tot    0.000  0.229  0.223  0.229  0.000  0.000  0.000  0.000  0.000  0.680
 
band    12 # energy    3.92709456 # occ.  1.00000000
 
ion      s     py     pz     px    dxy    dyz    dz2    dxz  x2-y2    tot
    1  0.000  0.001  0.003  0.001  0.000  0.000  0.000  0.000  0.000  0.004
    2  0.000  0.017  0.000  0.034  0.000  0.000  0.000  0.000  0.000  0.051
    3  0.000  0.017  0.068  0.017  0.000  0.000  0.000  0.000  0.000  0.103
    4  0.000  0.034  0.068  0.034  0.000  0.000  0.000  0.000  0.000  0.135
    5  0.000  0.034  0.000  0.017  0.000  0.000  0.000  0.000  0.000  0.051
    6  0.000  0.083  0.000  0.001  0.000  0.000  0.000  0.000  0.000  0.084
    7  0.000  0.083  0.003  0.083  0.000  0.000  0.000  0.000  0.000  0.169
    8  0.000  0.001  0.000  0.083  0.000  0.000  0.000  0.000  0.000  0.084
tot    0.000  0.269  0.141  0.269  0.000  0.000  0.000  0.000  0.000  0.680
 
band    13 # energy    3.92709510 # occ.  1.00000000
 
ion      s     py     pz     px    dxy    dyz    dz2    dxz  x2-y2    tot
    1  0.000  0.002  0.000  0.002  0.000  0.000  0.000  0.000  0.000  0.004
    2  0.000  0.052  0.042  0.012  0.000  0.000  0.000  0.000  0.000  0.106
    3  0.000  0.052  0.000  0.052  0.000  0.000  0.000  0.000  0.000  0.104
    4  0.000  0.012  0.000  0.012  0.000  0.000  0.000  0.000  0.000  0.024
    5  0.000  0.012  0.042  0.052  0.000  0.000  0.000  0.000  0.000  0.106
    6  0.000  0.026  0.115  0.002  0.000  0.000  0.000  0.000  0.000  0.142
    7  0.000  0.026  0.000  0.026  0.000  0.000  0.000  0.000  0.000  0.052
    8  0.000  0.002  0.115  0.026  0.000  0.000  0.000  0.000  0.000  0.142
tot    0.000  0.184  0.312  0.184  0.000  0.000  0.000  0.000  0.000  0.680
 
band    14 # energy   10.57265966 # occ.  1.00000000
 
ion      s     py     pz     px    dxy    dyz    dz2    dxz  x2-y2    tot
    1  0.000  0.016  0.065  0.016  0.000  0.000  0.000  0.000  0.000  0.097
    2  0.000  0.016  0.065  0.016  0.000  0.000  0.000  0.000  0.000  0.097
    3  0.000  0.016  0.065  0.016  0.000  0.000  0.000  0.000  0.000  0.097
    4  0.000  0.016  0.065  0.016  0.000  0.000  0.000  0.000  0.000  0.097
    5  0.000  0.016  0.065  0.016  0.000  0.000  0.000  0.000  0.000  0.097
    6  0.000  0.016  0.065  0.016  0.000  0.000  0.000  0.000  0.000  0.097
    7  0.000  0.016  0.065  0.016  0.000  0.000  0.000  0.000  0.000  0.097
    8  0.000  0.016  0.065  0.016  0.000  0.000  0.000  0.000  0.000  0.097
tot    0.000  0.129  0.517  0.129  0.000  0.000  0.000  0.000  0.000  0.775
 
band    15 # energy   10.57265966 # occ.  1.00000000
 
ion      s     py     pz     px    dxy    dyz    dz2    dxz  x2-y2    tot
    1  0.000  0.048  0.000  0.048  0.000  0.000  0.000  0.000  0.000  0.097
    2  0.000  0.048  0.000  0.048  0.000  0.000  0.000  0.000  0.000  0.097
    3  0.000  0.048  0.000  0.048  0.000  0.000  0.000  0.000  0.000  0.097
    4  0.000  0.048  0.000  0.048  0.000  0.000  0.000  0.000  0.000  0.097
    5  0.000  0.048  0.000  0.048  0.000  0.000  0.000  0.000  0.000  0.097
    6  0.000  0.048  0.000  0.048  0.000  0.000  0.000  0.000  0.000  0.097
    7  0.000  0.048  0.000  0.048  0.000  0.000  0.000  0.000  0.000  0.097
    8  0.000  0.048  0.000  0.048  0.000  0.000  0.000  0.000  0.000  0.097
tot    0.000  0.387  0.000  0.388  0.000  0.000  0.000  0.000  0.000  0.775
 
band    16 # energy   10.57277098 # occ.  1.00000000
 
ion      s     py     pz     px    dxy    dyz    dz2    dxz  x2-y2    tot
    1  0.000  0.032  0.032  0.032  0.000  0.000  0.000  0.000  0.000  0.097
    2  0.000  0.032  0.032  0.032  0.000  0.000  0.000  0.000  0.000  0.097
    3  0.000  0.032  0.032  0.032  0.000  0.000  0.000  0.000  0.000  0.097
    4  0.000  0.032  0.032  0.032  0.000  0.000  0.000  0.000  0.000  0.097
    5  0.000  0.032  0.032  0.032  0.000  0.000  0.000  0.000  0.000  0.097
    6  0.000  0.032  0.032  0.032  0.000  0.000  0.000  0.000  0.000  0.097
    7  0.000  0.032  0.032  0.032  0.000  0.000  0.000  0.000  0.000  0.097
    8  0.000  0.032  0.032  0.032  0.000  0.000  0.000  0.000  0.000  0.097
tot    0.000  0.258  0.258  0.258  0.000  0.000  0.000  0.000  0.000  0.775
 
band    17 # energy   15.43342564 # occ.  0.00000000
 
ion      s     py     pz     px    dxy    dyz    dz2    dxz  x2-y2    tot
    1  0.000  0.004  0.000  0.004  0.000  0.000  0.000  0.000  0.000  0.009
    2  0.045  0.007  0.000  0.007  0.000  0.000  0.000  0.000  0.000  0.059
    3  0.000  0.007  0.000  0.007  0.000  0.000  0.000  0.000  0.000  0.015
    4  0.000  0.007  0.000  0.007  0.000  0.000  0.000  0.000  0.000  0.015
    5  0.045  0.007  0.000  0.007  0.000  0.000  0.000  0.000  0.000  0.059
    6  0.077  0.004  0.000  0.004  0.000  0.000  0.000  0.000  0.000  0.085
    7  0.000  0.004  0.000  0.004  0.000  0.000  0.000  0.000  0.000  0.009
    8  0.077  0.004  0.000  0.004  0.000  0.000  0.000  0.000  0.000  0.085
tot    0.242  0.046  0.000  0.046  0.000  0.000  0.000  0.000  0.000  0.335
 
band    18 # energy   15.43342578 # occ.  0.00000000
 
ion      s     py     pz     px    dxy    dyz    dz2    dxz  x2-y2    tot
    1  0.000  0.001  0.006  0.001  0.000  0.000  0.000  0.000  0.000  0.009
    2  0.016  0.002  0.009  0.002  0.000  0.000  0.000  0.000  0.000  0.030
    3  0.000  0.002  0.009  0.002  0.000  0.000  0.000  0.000  0.000  0.014
    4  0.061  0.002  0.009  0.002  0.000  0.000  0.000  0.000  0.000  0.076
    5  0.016  0.002  0.009  0.002  0.000  0.000  0.000  0.000  0.000  0.030
    6  0.025  0.001  0.006  0.001  0.000  0.000  0.000  0.000  0.000  0.034
    7  0.099  0.001  0.006  0.001  0.000  0.000  0.000  0.000  0.000  0.108
    8  0.025  0.001  0.006  0.001  0.000  0.000  0.000  0.000  0.000  0.034
tot    0.242  0.015  0.062  0.015  0.000  0.000  0.000  0.000  0.000  0.335
 
band    19 # energy   15.43344273 # occ.  0.00000000
 
ion      s     py     pz     px    dxy    dyz    dz2    dxz  x2-y2    tot
    1  0.003  0.007  0.008  0.007  0.000  0.000  0.000  0.000  0.000  0.026
    2  0.021  0.000  0.000  0.000  0.000  0.000  0.000  0.000  0.000  0.021
    3  0.178  0.000  0.000  0.000  0.000  0.000  0.000  0.000  0.000  0.179
    4  0.018  0.000  0.000  0.000  0.000  0.000  0.000  0.000  0.000  0.019
    5  0.021  0.000  0.000  0.000  0.000  0.000  0.000  0.000  0.000  0.021
    6  0.000  0.007  0.008  0.007  0.000  0.000  0.000  0.000  0.000  0.023
    7  0.001  0.007  0.008  0.007  0.000  0.000  0.000  0.000  0.000  0.024
    8  0.000  0.007  0.008  0.007  0.000  0.000  0.000  0.000  0.000  0.023
tot    0.242  0.030  0.032  0.030  0.000  0.000  0.000  0.000  0.000  0.335
 
band    20 # energy   15.43345616 # occ.  0.00000000
 
ion      s     py     pz     px    dxy    dyz    dz2    dxz  x2-y2    tot
    1  0.000  0.003  0.009  0.003  0.000  0.000  0.000  0.000  0.000  0.014
    2  0.024  0.001  0.006  0.001  0.000  0.000  0.000  0.000  0.000  0.033
    3  0.000  0.001  0.006  0.001  0.000  0.000  0.000  0.000  0.000  0.009
    4  0.101  0.001  0.006  0.001  0.000  0.000  0.000  0.000  0.000  0.110
    5  0.024  0.001  0.006  0.001  0.000  0.000  0.000  0.000  0.000  0.033
    6  0.016  0.003  0.009  0.003  0.000  0.000  0.000  0.000  0.000  0.030
    7  0.062  0.003  0.009  0.003  0.000  0.000  0.000  0.000  0.000  0.076
    8  0.016  0.003  0.009  0.003  0.000  0.000  0.000  0.000  0.000  0.030
tot    0.242  0.016  0.060  0.016  0.000  0.000  0.000  0.000  0.000  0.335
 
band    21 # energy   15.43345629 # occ.  0.00000000
 
ion      s     py     pz     px    dxy    dyz    dz2    dxz  x2-y2    tot
    1  0.000  0.007  0.000  0.007  0.000  0.000  0.000  0.000  0.000  0.015
    2  0.077  0.004  0.000  0.004  0.000  0.000  0.000  0.000  0.000  0.085
    3  0.000  0.004  0.000  0.004  0.000  0.000  0.000  0.000  0.000  0.009
    4  0.000  0.004  0.000  0.004  0.000  0.000  0.000  0.000  0.000  0.009
    5  0.077  0.004  0.000  0.004  0.000  0.000  0.000  0.000  0.000  0.085
    6  0.045  0.007  0.000  0.007  0.000  0.000  0.000  0.000  0.000  0.059
    7  0.000  0.007  0.000  0.007  0.000  0.000  0.000  0.000  0.000  0.015
    8  0.045  0.007  0.000  0.007  0.000  0.000  0.000  0.000  0.000  0.059
tot    0.242  0.046  0.000  0.046  0.000  0.000  0.000  0.000  0.000  0.335
 
band    22 # energy   15.43355455 # occ.  0.00000000
 
ion      s     py     pz     px    dxy    dyz    dz2    dxz  x2-y2    tot
    1  0.178  0.000  0.000  0.000  0.000  0.000  0.000  0.000  0.000  0.179
    2  0.000  0.008  0.008  0.008  0.000  0.000  0.000  0.000  0.000  0.023
    3  0.003  0.008  0.008  0.008  0.000  0.000  0.000  0.000  0.000  0.026
    4  0.000  0.008  0.008  0.008  0.000  0.000  0.000  0.000  0.000  0.023
    5  0.000  0.008  0.008  0.008  0.000  0.000  0.000  0.000  0.000  0.023
    6  0.020  0.000  0.000  0.000  0.000  0.000  0.000  0.000  0.000  0.020
    7  0.019  0.000  0.000  0.000  0.000  0.000  0.000  0.000  0.000  0.020
    8  0.020  0.000  0.000  0.000  0.000  0.000  0.000  0.000  0.000  0.020
tot    0.242  0.031  0.031  0.031  0.000  0.000  0.000  0.000  0.000  0.335
 
band    23 # energy   16.31108187 # occ.  0.00000000
 
ion      s     py     pz     px    dxy    dyz    dz2    dxz  x2-y2    tot
    1  0.000  0.025  0.025  0.025  0.000  0.000  0.000  0.000  0.000  0.075
    2  0.000  0.025  0.025  0.025  0.000  0.000  0.000  0.000  0.000  0.075
    3  0.000  0.025  0.025  0.025  0.000  0.000  0.000  0.000  0.000  0.075
    4  0.000  0.025  0.025  0.025  0.000  0.000  0.000  0.000  0.000  0.075
    5  0.000  0.025  0.025  0.025  0.000  0.000  0.000  0.000  0.000  0.075
    6  0.000  0.025  0.025  0.025  0.000  0.000  0.000  0.000  0.000  0.075
    7  0.000  0.025  0.025  0.025  0.000  0.000  0.000  0.000  0.000  0.075
    8  0.000  0.025  0.025  0.025  0.000  0.000  0.000  0.000  0.000  0.075
tot    0.000  0.200  0.200  0.200  0.000  0.000  0.000  0.000  0.000  0.600
 
band    24 # energy   16.31116411 # occ.  0.00000000
 
ion      s     py     pz     px    dxy    dyz    dz2    dxz  x2-y2    tot
    1  0.000  0.037  0.000  0.037  0.000  0.000  0.000  0.000  0.000  0.075
    2  0.000  0.037  0.000  0.037  0.000  0.000  0.000  0.000  0.000  0.075
    3  0.000  0.037  0.000  0.037  0.000  0.000  0.000  0.000  0.000  0.075
    4  0.000  0.037  0.000  0.037  0.000  0.000  0.000  0.000  0.000  0.075
    5  0.000  0.037  0.000  0.037  0.000  0.000  0.000  0.000  0.000  0.075
    6  0.000  0.037  0.000  0.037  0.000  0.000  0.000  0.000  0.000  0.075
    7  0.000  0.037  0.000  0.037  0.000  0.000  0.000  0.000  0.000  0.075
    8  0.000  0.037  0.000  0.037  0.000  0.000  0.000  0.000  0.000  0.075
tot    0.000  0.300  0.000  0.300  0.000  0.000  0.000  0.000  0.000  0.600
 
band    25 # energy   16.31116411 # occ.  0.00000000
 
ion      s     py     pz     px    dxy    dyz    dz2    dxz  x2-y2    tot
    1  0.000  0.012  0.050  0.013  0.000  0.000  0.000  0.000  0.000  0.075
    2  0.000  0.012  0.050  0.013  0.000  0.000  0.000  0.000  0.000  0.075
    3  0.000  0.012  0.050  0.013  0.000  0.000  0.000  0.000  0.000  0.075
    4  0.000  0.012  0.050  0.013  0.000  0.000  0.000  0.000  0.000  0.075
    5  0.000  0.012  0.050  0.013  0.000  0.000  0.000  0.000  0.000  0.075
    6  0.000  0.012  0.050  0.013  0.000  0.000  0.000  0.000  0.000  0.075
    7  0.000  0.012  0.050  0.013  0.000  0.000  0.000  0.000  0.000  0.075
    8  0.000  0.012  0.050  0.013  0.000  0.000  0.000  0.000  0.000  0.075
tot    0.000  0.100  0.400  0.100  0.000  0.000  0.000  0.000  0.000  0.600
 
band    26 # energy   25.14504838 # occ.  0.00000000
 
ion      s     py     pz     px    dxy    dyz    dz2    dxz  x2-y2    tot
    1  0.097  0.000  0.000  0.000  0.000  0.000  0.000  0.000  0.000  0.097
    2  0.097  0.000  0.000  0.000  0.000  0.000  0.000  0.000  0.000  0.097
    3  0.097  0.000  0.000  0.000  0.000  0.000  0.000  0.000  0.000  0.097
    4  0.097  0.000  0.000  0.000  0.000  0.000  0.000  0.000  0.000  0.097
    5  0.097  0.000  0.000  0.000  0.000  0.000  0.000  0.000  0.000  0.097
    6  0.097  0.000  0.000  0.000  0.000  0.000  0.000  0.000  0.000  0.097
    7  0.097  0.000  0.000  0.000  0.000  0.000  0.000  0.000  0.000  0.097
    8  0.097  0.000  0.000  0.000  0.000  0.000  0.000  0.000  0.000  0.097
tot    0.779  0.000  0.000  0.000  0.000  0.000  0.000  0.000  0.000  0.779
 
band    27 # energy   28.29025374 # occ.  0.00000000
 
ion      s     py     pz     px    dxy    dyz    dz2    dxz  x2-y2    tot
    1  0.000  0.000  0.003  0.056  0.000  0.000  0.000  0.000  0.000  0.059
    2  0.000  0.003  0.123  0.022  0.000  0.000  0.000  0.000  0.000  0.147
    3  0.000  0.003  0.054  0.001  0.000  0.000  0.000  0.000  0.000  0.058
    4  0.000  0.009  0.054  0.022  0.000  0.000  0.000  0.000  0.000  0.085
    5  0.000  0.009  0.123  0.001  0.000  0.000  0.000  0.000  0.000  0.133
    6  0.000  0.021  0.012  0.056  0.000  0.000  0.000  0.000  0.000  0.089
    7  0.000  0.021  0.003  0.120  0.000  0.000  0.000  0.000  0.000  0.143
    8  0.000  0.000  0.012  0.120  0.000  0.000  0.000  0.000  0.000  0.132
tot    0.000  0.065  0.384  0.398  0.000  0.000  0.000  0.000  0.000  0.846
 
band    28 # energy   28.29026019 # occ.  0.00000000
 
ion      s     py     pz     px    dxy    dyz    dz2    dxz  x2-y2    tot
    1  0.000  0.011  0.071  0.058  0.000  0.000  0.000  0.000  0.000  0.140
    2  0.000  0.104  0.003  0.005  0.000  0.000  0.000  0.000  0.000  0.111
    3  0.000  0.104  0.015  0.029  0.000  0.000  0.000  0.000  0.000  0.148
    4  0.000  0.056  0.015  0.005  0.000  0.000  0.000  0.000  0.000  0.076
    5  0.000  0.056  0.003  0.029  0.000  0.000  0.000  0.000  0.000  0.088
    6  0.000  0.018  0.032  0.058  0.000  0.000  0.000  0.000  0.000  0.108
    7  0.000  0.018  0.071  0.021  0.000  0.000  0.000  0.000  0.000  0.110
    8  0.000  0.011  0.032  0.021  0.000  0.000  0.000  0.000  0.000  0.064
tot    0.000  0.379  0.241  0.225  0.000  0.000  0.000  0.000  0.000  0.846
 

 k-point     2 :    0.12500000 0.00000000 0.00000000     weight = 0.01171875

band     1 # energy  -11.51228277 # occ.  1.00000000
 
ion      s     py     pz     px    dxy    dyz    dz2    dxz  x2-y2    tot
    1  0.071  0.000  0.000  0.001  0.000  0.000  0.000  0.000  0.000  0.072
    2  0.071  0.000  0.000  0.001  0.000  0.000  0.000  0.000  0.000  0.072
    3  0.071  0.000  0.000  0.001  0.000  0.000  0.000  0.000  0.000  0.072
    4  0.071  0.000  0.000  0.001  0.000  0.000  0.000  0.000  0.000  0.072
    5  0.071  0.000  0.000  0.001  0.000  0.000  0.000  0.000  0.000  0.072
    6  0.071  0.000  0.000  0.001  0.000  0.000  0.000  0.000  0.000  0.072
    7  0.071  0.000  0.000  0.001  0.000  0.000  0.000  0.000  0.000  0.072
    8  0.071  0.000  0.000  0.001  0.000  0.000  0.000  0.000  0.000  0.072
tot    0.569  0.000  0.000  0.004  0.000  0.000  0.000  0.000  0.000  0.574
 
band     2 # energy   -4.60472032 # occ.  1.00000000
 
ion      s     py     pz     px    dxy    dyz    dz2    dxz  x2-y2    tot
    1  0.056  0.000  0.000  0.023  0.000  0.000  0.000  0.000  0.000  0.079
    2  0.056  0.000  0.000  0.023  0.000  0.000  0.000  0.000  0.000  0.079
    3  0.056  0.000  0.000  0.023  0.000  0.000  0.000  0.000  0.000  0.079
    4  0.056  0.000  0.000  0.023  0.000  0.000  0.000  0.000  0.000  0.079
    5  0.056  0.000  0.000  0.023  0.000  0.000  0.000  0.000  0.000  0.079
    6  0.056  0.000  0.000  0.023  0.000  0.000  0.000  0.000  0.000  0.079
    7  0.056  0.000  0.000  0.023  0.000  0.000  0.000  0.000  0.000  0.079
    8  0.056  0.000  0.000  0.023  0.000  0.000  0.000  0.000  0.000  0.079
tot    0.450  0.000  0.000  0.186  0.000  0.000  0.000  0.000  0.000  0.635
 
band     3 # energy   -2.50132854 # occ.  1.00000000
 
ion      s     py     pz     px    dxy    dyz    dz2    dxz  x2-y2    tot
    1  0.156  0.008  0.008  0.000  0.000  0.000  0.000  0.000  0.000  0.172
    2  0.000  0.022  0.022  0.000  0.000  0.000  0.000  0.000  0.000  0.044
    3  0.056  0.022  0.022  0.000  0.000  0.000  0.000  0.000  0.000  0.100
    4  0.000  0.022  0.022  0.000  0.000  0.000  0.000  0.000  0.000  0.044
    5  0.056  0.022  0.022  0.000  0.000  0.000  0.000  0.000  0.000  0.100
    6  0.156  0.008  0.008  0.000  0.000  0.000  0.000  0.000  0.000  0.172
    7  0.000  0.008  0.008  0.000  0.000  0.000  0.000  0.000  0.000  0.016
    8  0.000  0.008  0.008  0.000  0.000  0.000  0.000  0.000  0.000  0.016
tot    0.423  0.119  0.118  0.001  0.000  0.000  0.000  0.000  0.000  0.661
 
band     4 # energy   -2.50130368 # occ.  1.00000000
 
ion      s     py     pz     px    dxy    dyz    dz2    dxz  x2-y2    tot
    1  0.000  0.029  0.027  0.000  0.000  0.000  0.000  0.000  0.000  0.056
    2  0.201  0.001  0.002  0.000  0.000  0.000  0.000  0.000  0.000  0.204
    3  0.000  0.001  0.002  0.000  0.000  0.000  0.000  0.000  0.000  0.003
    4  0.201  0.001  0.002  0.000  0.000  0.000  0.000  0.000  0.000  0.204
    5  0.000  0.001  0.002  0.000  0.000  0.000  0.000  0.000  0.000  0.003
    6  0.000  0.029  0.027  0.000  0.000  0.000  0.000  0.000  0.000  0.056
    7  0.011  0.029  0.027  0.000  0.000  0.000  0.000  0.000  0.000  0.067
    8  0.011  0.029  0.027  0.000  0.000  0.000  0.000  0.000  0.000  0.067
tot    0.423  0.122  0.115  0.001  0.000  0.000  0.000  0.000  0.000  0.661
 
band     5 # energy   -2.50128939 # occ.  1.00000000
 
ion      s     py     pz     px    dxy    dyz    dz2    dxz  x2-y2    tot
    1  0.056  0.020  0.023  0.000  0.000  0.000  0.000  0.000  0.000  0.099
    2  0.000  0.008  0.008  0.000  0.000  0.000  0.000  0.000  0.000  0.016
    3  0.156  0.008  0.008  0.000  0.000  0.000  0.000  0.000  0.000  0.172
    4  0.000  0.008  0.008  0.000  0.000  0.000  0.000  0.000  0.000  0.016
    5  0.156  0.008  0.008  0.000  0.000  0.000  0.000  0.000  0.000  0.172
    6  0.056  0.020  0.023  0.000  0.000  0.000  0.000  0.000  0.000  0.099
    7  0.000  0.020  0.023  0.000  0.000  0.000  0.000  0.000  0.000  0.044
    8  0.000  0.020  0.023  0.000  0.000  0.000  0.000  0.000  0.000  0.044
tot    0.423  0.114  0.124  0.001  0.000  0.000  0.000  0.000  0.000  0.661
 
band     6 # energy   -2.50122462 # occ.  1.00000000
 
ion      s     py     pz     px    dxy    dyz    dz2    dxz  x2-y2    tot
    1  0.000  0.001  0.001  0.000  0.000  0.000  0.000  0.000  0.000  0.003
    2  0.011  0.028  0.028  0.000  0.000  0.000  0.000  0.000  0.000  0.067
    3  0.000  0.028  0.028  0.000  0.000  0.000  0.000  0.000  0.000  0.056
    4  0.011  0.028  0.028  0.000  0.000  0.000  0.000  0.000  0.000  0.067
    5  0.000  0.028  0.028  0.000  0.000  0.000  0.000  0.000  0.000  0.056
    6  0.000  0.001  0.001  0.000  0.000  0.000  0.000  0.000  0.000  0.003
    7  0.201  0.001  0.001  0.000  0.000  0.000  0.000  0.000  0.000  0.204
    8  0.201  0.001  0.001  0.000  0.000  0.000  0.000  0.000  0.000  0.204
tot    0.423  0.120  0.118  0.001  0.000  0.000  0.000  0.000  0.000  0.661
 
band     7 # energy   -0.45395505 # occ.  1.00000000
 
ion      s     py     pz     px    dxy    dyz    dz2    dxz  x2-y2    tot
    1  0.048  0.000  0.000  0.037  0.000  0.000  0.000  0.000  0.000  0.085
    2  0.048  0.000  0.000  0.037  0.000  0.000  0.000  0.000  0.000  0.085
    3  0.048  0.000  0.000  0.037  0.000  0.000  0.000  0.000  0.000  0.085
    4  0.048  0.000  0.000  0.037  0.000  0.000  0.000  0.000  0.000  0.085
    5  0.048  0.000  0.000  0.037  0.000  0.000  0.000  0.000  0.000  0.085
    6  0.048  0.000  0.000  0.037  0.000  0.000  0.000  0.000  0.000  0.085
    7  0.048  0.000  0.000  0.037  0.000  0.000  0.000  0.000  0.000  0.085
    8  0.048  0.000  0.000  0.037  0.000  0.000  0.000  0.000  0.000  0.085
tot    0.386  0.000  0.000  0.297  0.000  0.000  0.000  0.000  0.000  0.683
 
band     8 # energy    3.60134146 # occ.  1.00000000
 
ion      s     py     pz     px    dxy    dyz    dz2    dxz  x2-y2    tot
    1  0.004  0.006  0.006  0.136  0.000  0.000  0.000  0.000  0.000  0.152
    2  0.000  0.035  0.036  0.000  0.000  0.000  0.000  0.000  0.000  0.071
    3  0.001  0.035  0.036  0.024  0.000  0.000  0.000  0.000  0.000  0.095
    4  0.000  0.035  0.036  0.000  0.000  0.000  0.000  0.000  0.000  0.071
    5  0.001  0.035  0.036  0.024  0.000  0.000  0.000  0.000  0.000  0.095
    6  0.004  0.006  0.006  0.136  0.000  0.000  0.000  0.000  0.000  0.152
    7  0.000  0.006  0.006  0.000  0.000  0.000  0.000  0.000  0.000  0.012
    8  0.000  0.006  0.006  0.000  0.000  0.000  0.000  0.000  0.000  0.012
tot    0.009  0.166  0.168  0.320  0.000  0.000  0.000  0.000  0.000  0.662
 
band     9 # energy    3.60136749 # occ.  1.00000000
 
ion      s     py     pz     px    dxy    dyz    dz2    dxz  x2-y2    tot
    1  0.000  0.037  0.033  0.000  0.000  0.000  0.000  0.000  0.000  0.070
    2  0.004  0.006  0.007  0.134  0.000  0.000  0.000  0.000  0.000  0.151
    3  0.000  0.006  0.007  0.000  0.000  0.000  0.000  0.000  0.000  0.013