<?xml version="1.0" encoding="ISO-8859-1"?>
<modeling>
 <generator>
  <i name="program" type="string">vasp </i>
  <i name="version" type="string">5.4.4.18Apr17-6-g9f103f2a35  </i>
  <i name="subversion" type="string">(build Jul  5 2023 12:24:19) complex            parallel </i>
  <i name="platform" type="string">NVIDIA22.7_CrayMPICH8.1.17 </i>
  <i name="date" type="string">2023 10 16 </i>
  <i name="time" type="string">23:30:34 </i>
 </generator>
 <incar>
  <i type="string" name="PREC">accurate</i>
  <i type="int" name="ISPIN">     2</i>
  <i type="int" name="ICHARG">     0</i>
  <i type="int" name="IBRION">     2</i>
  <i name="EDIFF">      0.00000100</i>
  <i name="EDIFFG">      0.00010000</i>
  <i type="int" name="NSW">   100</i>
  <i type="int" name="ISIF">     3</i>
  <i type="int" name="ISYM">     2</i>
  <i name="SYMPREC">      0.00010000</i>
  <i name="POTIM">      0.01500000</i>
  <i type="int" name="ISMEAR">    -5</i>
  <i name="SIGMA">      0.01000000</i>
  <i type="int" name="NWRITE">     0</i>
  <i name="PSTRESS">    250.00000000</i>
  <i type="logical" name="LWAVE"> F  </i>
  <i type="logical" name="LCHARG"> F  </i>
  <i type="int" name="LORBIT">    11</i>
  <v type="int" name="KPOINT_BSE">    -1     0     0     0</v>
 </incar>
 <structure name="primitive_cell" >
  <crystal>
   <varray name="basis" >
    <v>       1.75593999       1.75593999      -0.00000702 </v>
    <v>       1.75593999      -0.00000000      -1.75594701 </v>
    <v>       0.00000000       1.75593999      -1.75594701 </v>
   </varray>
   <i name="volume">     10.82828983 </i>
   <varray name="rec_basis" >
    <v>       0.28474834       0.28474834       0.28474720 </v>
    <v>       0.28474720      -0.28474834      -0.28474720 </v>
    <v>      -0.28474834       0.28474720      -0.28474720 </v>
   </varray>
  </crystal>
  <varray name="positions" >
   <v>       0.27008605       0.24330497       0.24330497 </v>
   <v>      -0.47991595       0.49330597       0.49330597 </v>
  </varray>
 </structure>
 <varray name="primitive_index" >
  <v type="int" >        1 </v>
  <v type="int" >        2 </v>
 </varray>
 <kpoints>
  <generation param="Gamma">
   <v type="int" name="divisions">       8        8        8 </v>
   <v name="usershift">      0.00000000       0.00000000       0.00000000 </v>
   <v name="genvec1">      0.12500000       0.00000000       0.00000000 </v>
   <v name="genvec2">      0.00000000       0.12500000       0.00000000 </v>
   <v name="genvec3">      0.00000000       0.00000000       0.12500000 </v>
   <v name="shift">      0.00000000       0.00000000       0.00000000 </v>
  </generation>
  <varray name="kpointlist" >
   <v>       0.00000000       0.00000000       0.00000000 </v>
   <v>       0.12500000       0.00000000       0.00000000 </v>
   <v>       0.25000000       0.00000000       0.00000000 </v>
   <v>       0.37500000       0.00000000       0.00000000 </v>
   <v>       0.50000000       0.00000000       0.00000000 </v>
   <v>       0.12500000       0.12500000       0.00000000 </v>
   <v>       0.25000000       0.12500000       0.00000000 </v>
   <v>       0.37500000       0.12500000       0.00000000 </v>
   <v>       0.50000000       0.12500000       0.00000000 </v>
   <v>       0.25000000       0.25000000       0.00000000 </v>
   <v>       0.37500000       0.25000000       0.00000000 </v>
   <v>       0.50000000       0.25000000       0.00000000 </v>
   <v>       0.37500000       0.37500000       0.00000000 </v>
   <v>       0.50000000       0.37500000       0.00000000 </v>
   <v>       0.50000000       0.50000000       0.00000000 </v>
   <v>       0.12500000       0.12500000       0.12500000 </v>
   <v>       0.25000000       0.12500000       0.12500000 </v>
   <v>       0.37500000       0.12500000       0.12500000 </v>
   <v>       0.50000000       0.12500000       0.12500000 </v>
   <v>       0.25000000       0.25000000       0.12500000 </v>
   <v>       0.37500000       0.25000000       0.12500000 </v>
   <v>       0.50000000       0.25000000       0.12500000 </v>
   <v>       0.37500000       0.37500000       0.12500000 </v>
   <v>       0.50000000       0.37500000       0.12500000 </v>
   <v>       0.50000000       0.50000000       0.12500000 </v>
   <v>       0.25000000       0.25000000       0.25000000 </v>
   <v>       0.37500000       0.25000000       0.25000000 </v>
   <v>       0.50000000       0.25000000       0.25000000 </v>
   <v>       0.37500000       0.37500000       0.25000000 </v>
   <v>       0.50000000       0.37500000       0.25000000 </v>
   <v>       0.50000000       0.50000000       0.25000000 </v>
   <v>       0.37500000       0.37500000       0.37500000 </v>
   <v>       0.50000000       0.37500000       0.37500000 </v>
   <v>       0.50000000       0.50000000       0.37500000 </v>
   <v>       0.50000000       0.50000000       0.50000000 </v>
  </varray>
  <varray name="weights" >
   <v>       0.00195313 </v>
   <v>       0.01171875 </v>
   <v>       0.01171875 </v>
   <v>       0.01171875 </v>
   <v>       0.00585938 </v>
   <v>       0.02343750 </v>
   <v>       0.04687500 </v>
   <v>       0.04687500 </v>
   <v>       0.02343750 </v>
   <v>       0.02343750 </v>
   <v>       0.04687500 </v>
   <v>       0.02343750 </v>
   <v>       0.02343750 </v>
   <v>       0.02343750 </v>
   <v>       0.00585938 </v>
   <v>       0.01562500 </v>
   <v>       0.04687500 </v>
   <v>       0.04687500 </v>
   <v>       0.02343750 </v>
   <v>       0.04687500 </v>
   <v>       0.09375000 </v>
   <v>       0.04687500 </v>
   <v>       0.04687500 </v>
   <v>       0.04687500 </v>
   <v>       0.01171875 </v>
   <v>       0.01562500 </v>
   <v>       0.04687500 </v>
   <v>       0.02343750 </v>
   <v>       0.04687500 </v>
   <v>       0.04687500 </v>
   <v>       0.01171875 </v>
   <v>       0.01562500 </v>
   <v>       0.02343750 </v>
   <v>       0.01171875 </v>
   <v>       0.00195313 </v>
  </varray>
  <varray name="tetrahedronlist"  type="int" >
   <v type="int" >       12        1        2        2        6 </v>
   <v type="int" >       12        2        2        6        6 </v>
   <v type="int" >       12        2        6        6       16 </v>
   <v type="int" >       12        2        3        6        7 </v>
   <v type="int" >       12        2        6        6        7 </v>
   <v type="int" >       12        6        6        7       16 </v>
   <v type="int" >       12        3        6        7        7 </v>
   <v type="int" >       24        6        7        7       17 </v>
   <v type="int" >       24        6        7       16       17 </v>
   <v type="int" >       12        3        4        7        8 </v>
   <v type="int" >       12        3        7        7        8 </v>
   <v type="int" >       12        7        7        8       17 </v>
   <v type="int" >       12        4        7        8        8 </v>
   <v type="int" >       12        7        8        8       18 </v>
   <v type="int" >       12        7        8       17       18 </v>
   <v type="int" >       12        4        5        8        9 </v>
   <v type="int" >       12        4        8        8        9 </v>
   <v type="int" >       12        8        8        9       18 </v>
   <v type="int" >       12        5        8        9        9 </v>
   <v type="int" >       12        8        9        9       19 </v>
   <v type="int" >       12        8        9       18       19 </v>
   <v type="int" >       12        6        7       10       16 </v>
   <v type="int" >       12        7       10       16       17 </v>
   <v type="int" >       12       10       16       17       20 </v>
   <v type="int" >       12        7        8       11       17 </v>
   <v type="int" >       12        7       10       11       17 </v>
   <v type="int" >       12       10       11       17       20 </v>
   <v type="int" >       12        8       11       17       18 </v>
   <v type="int" >       12       11       17       18       21 </v>
   <v type="int" >       12       11       17       20       21 </v>
   <v type="int" >       12        8        9       12       18 </v>
   <v type="int" >       12        8       11       12       18 </v>
   <v type="int" >       12       11       12       18       21 </v>
   <v type="int" >       12        9       12       18       19 </v>
   <v type="int" >       12       12       18       19       22 </v>
   <v type="int" >       12       12       18       21       22 </v>
   <v type="int" >       12        8        9       11       19 </v>
   <v type="int" >       12        9       11       12       19 </v>
   <v type="int" >       12       11       12       19       22 </v>
   <v type="int" >       12        8       11       18       19 </v>
   <v type="int" >       12       11       18       19       21 </v>
   <v type="int" >       12       11       19       21       22 </v>
   <v type="int" >       12        7        8       10       18 </v>
   <v type="int" >       12        8       10       11       18 </v>
   <v type="int" >       12       10       11       18       21 </v>
   <v type="int" >       12        7       10       17       18 </v>
   <v type="int" >       12       10       17       18       20 </v>
   <v type="int" >       12       10       18       20       21 </v>
   <v type="int" >       12        7        7       10       17 </v>
   <v type="int" >       12        7       10       17       20 </v>
   <v type="int" >       12        7       16       17       17 </v>
   <v type="int" >       12        7       17       17       20 </v>
   <v type="int" >       12        2        3        6       16 </v>
   <v type="int" >       12        3        6        7       16 </v>
   <v type="int" >       12        3        7       16       17 </v>
   <v type="int" >       12       10       11       13       20 </v>
   <v type="int" >       12       11       13       20       21 </v>
   <v type="int" >       12       13       20       21       23 </v>
   <v type="int" >       12       11       12       14       21 </v>
   <v type="int" >       12       11       13       14       21 </v>
   <v type="int" >       12       13       14       21       23 </v>
   <v type="int" >       12       12       14       21       22 </v>
   <v type="int" >       12       14       21       22       24 </v>
   <v type="int" >       12       14       21       23       24 </v>
   <v type="int" >       12       11       12       13       22 </v>
   <v type="int" >       12       12       13       14       22 </v>
   <v type="int" >       12       13       14       22       24 </v>
   <v type="int" >       12       11       13       21       22 </v>
   <v type="int" >       12       13       21       22       23 </v>
   <v type="int" >       12       13       22       23       24 </v>
   <v type="int" >       12       10       11       11       21 </v>
   <v type="int" >       12       11       11       13       21 </v>
   <v type="int" >       12       11       13       21       23 </v>
   <v type="int" >       12       10       11       20       21 </v>
   <v type="int" >       12       11       20       21       21 </v>
   <v type="int" >       12       11       21       21       23 </v>
   <v type="int" >       12        7        8       10       20 </v>
   <v type="int" >       12        8       10       11       20 </v>
   <v type="int" >       12        8       11       20       21 </v>
   <v type="int" >       12        7        8       17       20 </v>
   <v type="int" >       12        8       17       18       20 </v>
   <v type="int" >       12        8       18       20       21 </v>
   <v type="int" >       12        3        4        7       17 </v>
   <v type="int" >       12        4        7        8       17 </v>
   <v type="int" >       12        4        8       17       18 </v>
   <v type="int" >       12       13       14       15       23 </v>
   <v type="int" >       12       14       15       23       24 </v>
   <v type="int" >       12       15       23       24       25 </v>
   <v type="int" >       12       13       14       14       24 </v>
   <v type="int" >       12       14       14       15       24 </v>
   <v type="int" >       12       14       15       24       25 </v>
   <v type="int" >       12       13       14       23       24 </v>
   <v type="int" >       12       14       23       24       24 </v>
   <v type="int" >       12       14       24       24       25 </v>
   <v type="int" >       12       11       12       13       23 </v>
   <v type="int" >       12       12       13       14       23 </v>
   <v type="int" >       12       12       14       23       24 </v>
   <v type="int" >       12       11       12       21       23 </v>
   <v type="int" >       12       12       21       22       23 </v>
   <v type="int" >       12       12       22       23       24 </v>
   <v type="int" >       12        8        9       11       21 </v>
   <v type="int" >       12        9       11       12       21 </v>
   <v type="int" >       12        9       12       21       22 </v>
   <v type="int" >       12        8        9       18       21 </v>
   <v type="int" >       12        9       18       19       21 </v>
   <v type="int" >       12        9       19       21       22 </v>
   <v type="int" >       12        4        5        8       18 </v>
   <v type="int" >       12        5        8        9       18 </v>
   <v type="int" >       12        5        9       18       19 </v>
   <v type="int" >       12       13       14       15       25 </v>
   <v type="int" >       12       13       14       24       25 </v>
   <v type="int" >       12       13       23       24       25 </v>
   <v type="int" >       12       11       12       14       24 </v>
   <v type="int" >       12       11       13       14       24 </v>
   <v type="int" >       12       11       13       23       24 </v>
   <v type="int" >       12       11       12       22       24 </v>
   <v type="int" >       12       11       21       22       24 </v>
   <v type="int" >       12       11       21       23       24 </v>
   <v type="int" >       12        8        9       12       22 </v>
   <v type="int" >       12        8       11       12       22 </v>
   <v type="int" >       12        8       11       21       22 </v>
   <v type="int" >       12        8        9       19       22 </v>
   <v type="int" >       12        8       18       19       22 </v>
   <v type="int" >       12        8       18       21       22 </v>
   <v type="int" >       12        4        5        9       19 </v>
   <v type="int" >       12        4        8        9       19 </v>
   <v type="int" >       12        4        8       18       19 </v>
   <v type="int" >       12       10       11       13       23 </v>
   <v type="int" >       12       10       11       21       23 </v>
   <v type="int" >       12       10       20       21       23 </v>
   <v type="int" >       12        7        8       11       21 </v>
   <v type="int" >       12        7       10       11       21 </v>
   <v type="int" >       12        7       10       20       21 </v>
   <v type="int" >       12        7        8       18       21 </v>
   <v type="int" >       12        7       17       18       21 </v>
   <v type="int" >       12        7       17       20       21 </v>
   <v type="int" >       12        3        4        8       18 </v>
   <v type="int" >       12        3        7        8       18 </v>
   <v type="int" >       12        3        7       17       18 </v>
   <v type="int" >       12        6        7       10       20 </v>
   <v type="int" >       12        6        7       17       20 </v>
   <v type="int" >       12        6       16       17       20 </v>
   <v type="int" >       12        2        3        7       17 </v>
   <v type="int" >       12        2        6        7       17 </v>
   <v type="int" >       12        2        6       16       17 </v>
   <v type="int" >       12        1        2        6       16 </v>
   <v type="int" >       12       16       17       17       20 </v>
   <v type="int" >       12       17       17       20       20 </v>
   <v type="int" >       12       17       20       20       26 </v>
   <v type="int" >       12       17       18       20       21 </v>
   <v type="int" >       12       17       20       20       21 </v>
   <v type="int" >       12       20       20       21       26 </v>
   <v type="int" >       12       18       20       21       21 </v>
   <v type="int" >       24       20       21       21       27 </v>
   <v type="int" >       24       20       21       26       27 </v>
   <v type="int" >       12       18       19       21       22 </v>
   <v type="int" >       12       18       21       21       22 </v>
   <v type="int" >       12       21       21       22       27 </v>
   <v type="int" >       12       19       21       22       22 </v>
   <v type="int" >       12       21       22       22       28 </v>
   <v type="int" >       12       21       22       27       28 </v>
   <v type="int" >       12       20       21       23       26 </v>
   <v type="int" >       12       21       23       26       27 </v>
   <v type="int" >       12       23       26       27       29 </v>
   <v type="int" >       12       21       22       24       27 </v>
   <v type="int" >       12       21       23       24       27 </v>
   <v type="int" >       12       23       24       27       29 </v>
   <v type="int" >       12       22       24       27       28 </v>
   <v type="int" >       12       24       27       28       30 </v>
   <v type="int" >       12       24       27       29       30 </v>
   <v type="int" >       12       21       22       23       28 </v>
   <v type="int" >       12       22       23       24       28 </v>
   <v type="int" >       12       23       24       28       30 </v>
   <v type="int" >       12       21       23       27       28 </v>
   <v type="int" >       12       23       27       28       29 </v>
   <v type="int" >       12       23       28       29       30 </v>
   <v type="int" >       12       21       21       23       27 </v>
   <v type="int" >       12       21       23       27       29 </v>
   <v type="int" >       12       21       26       27       27 </v>
   <v type="int" >       12       21       27       27       29 </v>
   <v type="int" >       12       17       18       20       26 </v>
   <v type="int" >       12       18       20       21       26 </v>
   <v type="int" >       12       18       21       26       27 </v>
   <v type="int" >       12       23       24       25       29 </v>
   <v type="int" >       12       24       25       29       30 </v>
   <v type="int" >       12       25       29       30       31 </v>
   <v type="int" >       12       23       24       24       30 </v>
   <v type="int" >       12       24       24       25       30 </v>
   <v type="int" >       12       24       25       30       31 </v>
   <v type="int" >       12       23       24       29       30 </v>
   <v type="int" >       12       24       29       30       30 </v>
   <v type="int" >       12       24       30       30       31 </v>
   <v type="int" >       12       21       22       23       29 </v>
   <v type="int" >       12       22       23       24       29 </v>
   <v type="int" >       12       22       24       29       30 </v>
   <v type="int" >       12       21       22       27       29 </v>
   <v type="int" >       12       22       27       28       29 </v>
   <v type="int" >       12       22       28       29       30 </v>
   <v type="int" >       12       18       19       21       27 </v>
   <v type="int" >       12       19       21       22       27 </v>
   <v type="int" >       12       19       22       27       28 </v>
   <v type="int" >       12       23       24       25       31 </v>
   <v type="int" >       12       23       24       30       31 </v>
   <v type="int" >       12       23       29       30       31 </v>
   <v type="int" >       12       21       22       24       30 </v>
   <v type="int" >       12       21       23       24       30 </v>
   <v type="int" >       12       21       23       29       30 </v>
   <v type="int" >       12       21       22       28       30 </v>
   <v type="int" >       12       21       27       28       30 </v>
   <v type="int" >       12       21       27       29       30 </v>
   <v type="int" >       12       18       19       22       28 </v>
   <v type="int" >       12       18       21       22       28 </v>
   <v type="int" >       12       18       21       27       28 </v>
   <v type="int" >       12       20       21       23       29 </v>
   <v type="int" >       12       20       21       27       29 </v>
   <v type="int" >       12       20       26       27       29 </v>
   <v type="int" >       12       17       18       21       27 </v>
   <v type="int" >       12       17       20       21       27 </v>
   <v type="int" >       12       17       20       26       27 </v>
   <v type="int" >       12       16       17       20       26 </v>
   <v type="int" >       12       26       27       27       29 </v>
   <v type="int" >       12       27       27       29       29 </v>
   <v type="int" >       12       27       29       29       32 </v>
   <v type="int" >       12       27       28       29       30 </v>
   <v type="int" >       12       27       29       29       30 </v>
   <v type="int" >       12       29       29       30       32 </v>
   <v type="int" >       12       28       29       30       30 </v>
   <v type="int" >       24       29       30       30       33 </v>
   <v type="int" >       24       29       30       32       33 </v>
   <v type="int" >       12       29       30       31       32 </v>
   <v type="int" >       12       30       31       32       33 </v>
   <v type="int" >       12       31       32       33       34 </v>
   <v type="int" >       12       30       30       31       33 </v>
   <v type="int" >       12       30       31       33       34 </v>
   <v type="int" >       12       30       32       33       33 </v>
   <v type="int" >       12       30       33       33       34 </v>
   <v type="int" >       12       27       28       29       32 </v>
   <v type="int" >       12       28       29       30       32 </v>
   <v type="int" >       12       28       30       32       33 </v>
   <v type="int" >       12       29       30       31       34 </v>
   <v type="int" >       12       29       30       33       34 </v>
   <v type="int" >       12       29       32       33       34 </v>
   <v type="int" >       12       27       28       30       33 </v>
   <v type="int" >       12       27       29       30       33 </v>
   <v type="int" >       12       27       29       32       33 </v>
   <v type="int" >       12       26       27       29       32 </v>
   <v type="int" >       12       32       33       33       34 </v>
   <v type="int" >       12       33       33       34       34 </v>
   <v type="int" >       12       33       34       34       35 </v>
   <v type="int" >       12       32       33       34       35 </v>
  </varray>
  <i name="volumeweight">      0.00032552 </i>
 </kpoints>
 <parameters>
  <separator name="general" >
   <i type="string" name="SYSTEM">unknown system</i>
   <i type="logical" name="LCOMPAT"> F  </i>
  </separator>
  <separator name="electronic" >
   <i type="string" name="PREC">accura</i>
   <i name="ENMAX">    400.00000000</i>
   <i name="ENAUG">    644.87300000</i>
   <i name="EDIFF">      0.00000100</i>
   <i type="int" name="IALGO">    38</i>
   <i type="int" name="IWAVPR">    11</i>
   <i type="int" name="NBANDS">    28</i>
   <i name="NELECT">     32.00000000</i>
   <i type="int" name="TURBO">     0</i>
   <i type="int" name="IRESTART">     0</i>
   <i type="int" name="NREBOOT">     0</i>
   <i type="int" name="NMIN">     0</i>
   <i name="EREF">      0.00000000</i>
   <separator name="electronic smearing" >
    <i type="int" name="ISMEAR">    -5</i>
    <i name="SIGMA">      0.01000000</i>
    <i name="KSPACING">      0.50000000</i>
    <i type="logical" name="KGAMMA"> T  </i>
   </separator>
   <separator name="electronic projectors" >
    <i type="logical" name="LREAL"> F  </i>
    <v name="ROPT">      0.00000000</v>
    <i type="int" name="LMAXPAW">  -100</i>
    <i type="int" name="LMAXMIX">     2</i>
    <i type="logical" name="NLSPLINE"> F  </i>
   </separator>
   <separator name="electronic startup" >
    <i type="int" name="ISTART">     0</i>
    <i type="int" name="ICHARG">     0</i>
    <i type="int" name="INIWAV">     1</i>
   </separator>
   <separator name="electronic spin" >
    <i type="int" name="ISPIN">     2</i>
    <i type="logical" name="LNONCOLLINEAR"> F  </i>
    <v name="MAGMOM">      1.00000000      1.00000000      1.00000000      1.00000000      1.00000000      1.00000000      1.00000000      1.00000000</v>
    <i name="NUPDOWN">     -1.00000000</i>
    <i type="logical" name="LSORBIT"> F  </i>
    <v name="SAXIS">      0.00000000      0.00000000      1.00000000</v>
    <i type="logical" name="LSPIRAL"> F  </i>
    <v name="QSPIRAL">      0.00000000      0.00000000      0.00000000</v>
    <i type="logical" name="LZEROZ"> F  </i>
   </separator>
   <separator name="electronic exchange-correlation" >
    <i type="logical" name="LASPH"> F  </i>
    <i type="logical" name="LMETAGGA"> F  </i>
   </separator>
   <separator name="electronic convergence" >
    <i type="int" name="NELM">    60</i>
    <i type="int" name="NELMDL">    -5</i>
    <i type="int" name="NELMIN">     2</i>
    <i name="ENINI">    400.00000000</i>
    <separator name="electronic convergence detail" >
     <i type="logical" name="LDIAG"> T  </i>
     <i type="logical" name="LSUBROT"> F  </i>
     <i name="WEIMIN">      0.00100000</i>
     <i name="EBREAK">      0.00000001</i>
     <i name="DEPER">      0.30000000</i>
     <i type="int" name="NRMM">     4</i>
     <i name="TIME">      0.40000000</i>
    </separator>
   </separator>
   <separator name="electronic mixer" >
    <i name="AMIX">      0.40000000</i>
    <i name="BMIX">      1.00000000</i>
    <i name="AMIN">      0.10000000</i>
    <i name="AMIX_MAG">      1.60000000</i>
    <i name="BMIX_MAG">      1.00000000</i>
    <separator name="electronic mixer details" >
     <i type="int" name="IMIX">     4</i>
     <i type="logical" name="MIXFIRST"> F  </i>
     <i type="int" name="MAXMIX">   -45</i>
     <i name="WC">    100.00000000</i>
     <i type="int" name="INIMIX">     1</i>
     <i type="int" name="MIXPRE">     1</i>
     <i type="int" name="MREMOVE">     5</i>
    </separator>
   </separator>
   <separator name="electronic dipolcorrection" >
    <i type="logical" name="LDIPOL"> F  </i>
    <i type="logical" name="LMONO"> F  </i>
    <i type="int" name="IDIPOL">     0</i>
    <i name="EPSILON">      1.00000000</i>
    <v name="DIPOL">   -100.00000000   -100.00000000   -100.00000000</v>
    <i name="EFIELD">      0.00000000</i>
   </separator>
  </separator>
  <separator name="grids" >
   <i type="int" name="NGX">    24</i>
   <i type="int" name="NGY">    24</i>
   <i type="int" name="NGZ">    24</i>
   <i type="int" name="NGXF">    48</i>
   <i type="int" name="NGYF">    48</i>
   <i type="int" name="NGZF">    48</i>
   <i type="logical" name="ADDGRID"> F  </i>
  </separator>
  <separator name="ionic" >
   <i type="int" name="NSW">   100</i>
   <i type="int" name="IBRION">     2</i>
   <i type="int" name="MDALGO">     0</i>
   <i type="int" name="ISIF">     3</i>
   <i name="PSTRESS">    250.00000000</i>
   <i name="EDIFFG">      0.00010000</i>
   <i type="int" name="NFREE">     1</i>
   <i name="POTIM">      0.01500000</i>
   <i name="SMASS">     -3.00000000</i>
   <i name="SCALEE">      1.00000000</i>
  </separator>
  <separator name="ionic md" >
   <i name="TEBEG">      0.00010000</i>
   <i name="TEEND">      0.00010000</i>
   <i type="int" name="NBLOCK">     1</i>
   <i type="int" name="KBLOCK">   100</i>
   <i type="int" name="NPACO">   256</i>
   <i name="APACO">     16.00000000</i>
  </separator>
  <separator name="symmetry" >
   <i type="int" name="ISYM">     2</i>
   <i name="SYMPREC">      0.00010000</i>
  </separator>
  <separator name="dos" >
   <i type="int" name="LORBIT">    11</i>
   <v name="RWIGS">     -1.00000000</v>
   <i type="int" name="NEDOS">   301</i>
   <i name="EMIN">     10.00000000</i>
   <i name="EMAX">    -10.00000000</i>
   <i name="EFERMI">      0.00000000</i>
  </separator>
  <separator name="writing" >
   <i type="int" name="NWRITE">     0</i>
   <i type="logical" name="LWAVE"> F  </i>
   <i type="logical" name="LDOWNSAMPLE"> F  </i>
   <i type="logical" name="LCHARG"> F  </i>
   <i type="logical" name="LPARD"> F  </i>
   <i type="logical" name="LVTOT"> F  </i>
   <i type="logical" name="LVHAR"> F  </i>
   <i type="logical" name="LELF"> F  </i>
   <i type="logical" name="LOPTICS"> F  </i>
   <v name="STM">      0.00000000      0.00000000      0.00000000      0.00000000      0.00000000      0.00000000      0.00000000</v>
  </separator>
  <separator name="performance" >
   <i type="int" name="NPAR">     4</i>
   <i type="int" name="NSIM">     4</i>
   <i type="int" name="NBLK">    -1</i>
   <i type="logical" name="LPLANE"> T  </i>
   <i type="logical" name="LSCALAPACK"> T  </i>
   <i type="logical" name="LSCAAWARE"> F  </i>
   <i type="logical" name="LSCALU"> F  </i>
   <i type="logical" name="LASYNC"> F  </i>
   <i type="logical" name="LORBITALREAL"> F  </i>
  </separator>
  <separator name="miscellaneous" >
   <i type="int" name="IDIOT">     3</i>
   <i type="int" name="ISPECIAL">     0</i>
   <i type="logical" name="LMUSIC"> F  </i>
   <v name="POMASS">     12.01100000</v>
   <v name="DARWINR">      0.00000000</v>
   <v name="DARWINV">      1.00000000</v>
   <i type="logical" name="LCORR"> T  </i>
  </separator>
  <i type="logical" name="GGA_COMPAT"> T  </i>
  <i type="logical" name="LBERRY"> F  </i>
  <i type="int" name="ICORELEVEL">     0</i>
  <i type="logical" name="LDAU"> F  </i>
  <i type="int" name="I_CONSTRAINED_M">     0</i>
  <separator name="electronic exchange-correlation" >
   <i type="string" name="GGA">--</i>
   <i type="int" name="VOSKOWN">     0</i>
   <i type="logical" name="LHFCALC"> F  </i>
   <i type="string" name="PRECFOCK"></i>
   <i type="logical" name="LSYMGRAD"> F  </i>
   <i type="logical" name="LHFONE"> F  </i>
   <i type="logical" name="LRHFCALC"> F  </i>
   <i type="logical" name="LTHOMAS"> F  </i>
   <i type="logical" name="LMODELHF"> F  </i>
   <i name="ENCUT4O">     -1.00000000</i>
   <i type="int" name="EXXOEP">     0</i>
   <i type="int" name="FOURORBIT">     0</i>
   <i name="AEXX">      0.00000000</i>
   <i name="HFALPHA">      0.00000000</i>
   <i name="MCALPHA">      0.00000000</i>
   <i name="ALDAX">      1.00000000</i>
   <i name="AGGAX">      1.00000000</i>
   <i name="ALDAC">      1.00000000</i>
   <i name="AGGAC">      1.00000000</i>
   <i type="int" name="NKREDX">     1</i>
   <i type="int" name="NKREDY">     1</i>
   <i type="int" name="NKREDZ">     1</i>
   <i type="logical" name="SHIFTRED"> F  </i>
   <i type="logical" name="ODDONLY"> F  </i>
   <i type="logical" name="EVENONLY"> F  </i>
   <i type="int" name="LMAXFOCK">     0</i>
   <i type="int" name="NMAXFOCKAE">     0</i>
   <i type="logical" name="LFOCKAEDFT"> F  </i>
   <i name="HFSCREEN">      0.00000000</i>
   <i name="HFSCREENC">      0.00000000</i>
   <i type="int" name="NBANDSGWLOW">     0</i>
  </separator>
  <separator name="vdW DFT" >
   <i type="logical" name="LUSE_VDW"> F  </i>
   <i name="Zab_VDW">     -0.84910000</i>
   <i name="PARAM1">      0.12340000</i>
   <i name="PARAM2">      1.00000000</i>
   <i name="PARAM3">      0.00000000</i>
  </separator>
  <separator name="model GW" >
   <i type="int" name="MODEL_GW">     0</i>
   <i name="MODEL_EPS0">      3.24849994</i>
   <i name="MODEL_ALPHA">      1.00000000</i>
  </separator>
  <separator name="linear response parameters" >
   <i type="logical" name="LEPSILON"> F  </i>
   <i type="logical" name="LRPA"> F  </i>
   <i type="logical" name="LNABLA"> F  </i>
   <i type="logical" name="LVEL"> F  </i>
   <i type="int" name="KINTER">     0</i>
   <i name="CSHIFT">      0.10000000</i>
   <i name="OMEGAMAX">     -1.00000000</i>
   <i name="DEG_THRESHOLD">      0.00200000</i>
   <i name="RTIME">     -0.10000000</i>
   <i name="WPLASMAI">      0.00000000</i>
   <v name="DFIELD">      0.00000000      0.00000000      0.00000000</v>
   <v name="WPLASMA">      0.00000000      0.00000000      0.00000000      0.00000000      0.00000000      0.00000000      0.00000000      0.00000000      0.00000000</v>
  </separator>
  <separator name="orbital magnetization" >
   <i type="logical" name="NUCIND"> F  </i>
   <v name="MAGPOS">      0.00000000      0.00000000      0.00000000</v>
   <i type="logical" name="LNICSALL"> T  </i>
   <i type="logical" name="ORBITALMAG"> F  </i>
   <i type="logical" name="LMAGBLOCH"> F  </i>
   <i type="logical" name="LCHIMAG"> F  </i>
   <i type="logical" name="LGAUGE"> T  </i>
   <i type="int" name="MAGATOM">     0</i>
   <v name="MAGDIPOL">      0.00000000      0.00000000      0.00000000</v>
   <v name="AVECCONST">      0.00000000      0.00000000      0.00000000</v>
  </separator>
  <separator name="response functions" >
   <i type="logical" name="LADDER"> F  </i>
   <i type="logical" name="LRPAFORCE"> F  </i>
   <i type="logical" name="LFXC"> F  </i>
   <i type="logical" name="LHARTREE"> T  </i>
   <i type="int" name="IBSE">     0</i>
   <v type="int" name="KPOINT">    -1     0     0     0</v>
   <i type="logical" name="LTCTE"> F  </i>
   <i type="logical" name="LTETE"> F  </i>
   <i type="logical" name="LTRIPLET"> F  </i>
   <i type="logical" name="LFXCEPS"> F  </i>
   <i type="logical" name="LFXHEG"> F  </i>
   <i type="int" name="NATURALO">     2</i>
   <i type="logical" name="L2ORDER"> F  </i>
   <i type="logical" name="LMP2LT"> F  </i>
   <i type="logical" name="LUSEW"> F  </i>
   <i name="ENCUTGW">     -2.00000000</i>
   <i name="ENCUTGWSOFT">     -2.00000000</i>
   <i name="ENCUTLF">     -1.00000000</i>
   <i type="int" name="LMAXMP2">    -1</i>
   <i name="SCISSOR">      0.00000000</i>
   <i type="int" name="NOMEGA">     0</i>
   <i type="int" name="NOMEGAR">     0</i>
   <i type="int" name="NBANDSGW">    -1</i>
   <i type="int" name="NBANDSO">    -1</i>
   <i type="int" name="NBANDSV">    -1</i>
   <i type="int" name="NELM">     1</i>
   <i type="int" name="NELMHF">     1</i>
   <i type="int" name="DIM">     3</i>
   <i type="int" name="ANTIRES">     0</i>
   <i name="OMEGAMAX">    -30.00000000</i>
   <i name="OMEGAMIN">    -30.00000000</i>
   <i name="OMEGATL">   -200.00000000</i>
   <i type="int" name="OMEGAGRID">   140</i>
   <i name="CSHIFT">     -0.10000000</i>
   <i type="logical" name="SELFENERGY"> F  </i>
   <i type="logical" name="LSPECTRAL"> F  </i>
   <i type="logical" name="LSPECTRALGW"> F  </i>
   <i type="logical" name="LSINGLES"> F  </i>
   <i type="logical" name="LFERMIGW"> F  </i>
   <i type="logical" name="ODDONLYGW"> F  </i>
   <i type="logical" name="EVENONLYGW"> F  </i>
   <i type="int" name="NKREDLFX">     1</i>
   <i type="int" name="NKREDLFY">     1</i>
   <i type="int" name="NKREDLFZ">     1</i>
   <i type="int" name="MAXMEM">  2800</i>
   <i type="int" name="TELESCOPE">     0</i>
   <i type="int" name="TAUPAR">     1</i>
   <i type="int" name="OMEGAPAR">    -1</i>
   <i name="LAMBDA">      1.00000000</i>
  </separator>
  <separator name="External order field" >
   <i name="OFIELD_KAPPA">      0.00000000</i>
   <v name="OFIELD_K">      0.00000000      0.00000000      0.00000000</v>
   <i name="OFIELD_Q6_NEAR">      0.00000000</i>
   <i name="OFIELD_Q6_FAR">      0.00000000</i>
   <i name="OFIELD_A">      0.00000000</i>
  </separator>
 </parameters>
 <atominfo>
  <atoms>       8 </atoms>
  <types>       1 </types>
  <array name="atoms" >
   <dimension dim="1">ion</dimension>
   <field type="string">element</field>
   <field type="int">atomtype</field>
   <set>
    <rc><c>C </c><c>   1</c></rc>
    <rc><c>C </c><c>   1</c></rc>
    <rc><c>C </c><c>   1</c></rc>
    <rc><c>C </c><c>   1</c></rc>
    <rc><c>C </c><c>   1</c></rc>
    <rc><c>C </c><c>   1</c></rc>
    <rc><c>C </c><c>   1</c></rc>
    <rc><c>C </c><c>   1</c></rc>
   </set>
  </array>
  <array name="atomtypes" >
   <dimension dim="1">type</dimension>
   <field type="int">atomspertype</field>
   <field type="string">element</field>
   <field>mass</field>
   <field>valence</field>
   <field type="string">pseudopotential</field>
   <set>
    <rc><c>   8</c><c>C </c><c>     12.01100000</c><c>      4.00000000</c><c> PAW_PBE C 08Apr2002                    </c></rc>
   </set>
  </array>
 </atominfo>
 <structure name="initialpos" >
  <crystal>
   <varray name="basis" >
    <v>       3.51188700      -0.00000000      -0.00000000 </v>
    <v>       0.00000000       3.51188700      -0.00000000 </v>
    <v>       0.00000000       0.00000000       3.51188700 </v>
   </varray>
   <i name="volume">     43.31333259 </i>
   <varray name="rec_basis" >
    <v>       0.28474720      -0.00000000       0.00000000 </v>
    <v>       0.00000000       0.28474720      -0.00000000 </v>
    <v>       0.00000000       0.00000000       0.28474720 </v>
   </varray>
  </crystal>
  <varray name="positions" >
   <v>       0.75669600       0.75669600       0.75669600 </v>
   <v>       0.00669500       0.50669600       0.00669500 </v>
   <v>       0.50669600       0.50669600       0.50669600 </v>
   <v>       0.00669500       0.00669500       0.50669600 </v>
   <v>       0.50669600       0.00669500       0.00669500 </v>
   <v>       0.75669600       0.25669600       0.25669600 </v>
   <v>       0.25669600       0.25669600       0.75669600 </v>
   <v>       0.25669600       0.75669600       0.25669600 </v>
  </varray>
 </structure>
 <calculation>
  <scstep>
   <time name="dav">    0.58    0.59</time>
   <time name="total">    0.64    0.65</time>
   <energy>
    <i name="alphaZ">    120.39550375 </i>
    <i name="ewald">  -1413.59899669 </i>
    <i name="hartreedc">     -2.58221799 </i>
    <i name="XCdc">    109.41487070 </i>
    <i name="pawpsdc">    103.69076704 </i>
    <i name="pawaedc">   -108.69556966 </i>
    <i name="eentropy">      0.00000000 </i>
    <i name="bandstr">    -33.51295717 </i>
    <i name="atom">   1177.01779097 </i>
    <i name="e_fr_energy">    -47.87080904 </i>
    <i name="e_wo_entrp">    -47.87080904 </i>
    <i name="e_0_energy">    -47.87080904 </i>
   </energy>
  </scstep>
  <scstep>
   <time name="dav">    0.69    0.70</time>
   <time name="total">    0.70    0.70</time>
   <energy>
    <i name="e_fr_energy">   -179.37952034 </i>
    <i name="e_wo_entrp">   -179.37952034 </i>
    <i name="e_0_energy">   -179.37952034 </i>
   </energy>
  </scstep>
  <scstep>
   <time name="dav">    0.71    0.71</time>
   <time name="total">    0.72    0.72</time>
   <energy>
    <i name="e_fr_energy">   -184.66525852 </i>
    <i name="e_wo_entrp">   -184.66525852 </i>
    <i name="e_0_energy">   -184.66525852 </i>
   </energy>
  </scstep>
  <scstep>
   <time name="dav">    0.68    0.68</time>
   <time name="total">    0.68    0.68</time>
   <energy>
    <i name="e_fr_energy">   -184.74605421 </i>
    <i name="e_wo_entrp">   -184.74605421 </i>
    <i name="e_0_energy">   -184.74605421 </i>
   </energy>
  </scstep>
  <scstep>
   <time name="dav">    0.71    0.71</time>
   <time name="total">    0.75    0.75</time>
   <energy>
    <i name="e_fr_energy">   -184.74812255 </i>
    <i name="e_wo_entrp">   -184.74812255 </i>
    <i name="e_0_energy">   -184.74812255 </i>
   </energy>
  </scstep>
  <scstep>
   <time name="dav">    0.61    0.61</time>
   <time name="total">    0.66    0.66</time>
   <energy>
    <i name="e_fr_energy">   -102.46394007 </i>
    <i name="e_wo_entrp">   -102.46394007 </i>
    <i name="e_0_energy">   -102.46394007 </i>
   </energy>
  </scstep>
  <scstep>
   <time name="dav">    0.64    0.64</time>
   <time name="total">    0.69    0.69</time>
   <energy>
    <i name="e_fr_energy">    -72.27754937 </i>
    <i name="e_wo_entrp">    -72.27754937 </i>
    <i name="e_0_energy">    -72.27754937 </i>
   </energy>
  </scstep>
  <scstep>
   <time name="dav">    0.66    0.66</time>
   <time name="total">    0.71    0.71</time>
   <energy>
    <i name="e_fr_energy">    -72.53052689 </i>
    <i name="e_wo_entrp">    -72.53052689 </i>
    <i name="e_0_energy">    -72.53052689 </i>
   </energy>
  </scstep>
  <scstep>
   <time name="dav">    0.63    0.63</time>
   <time name="total">    0.68    0.68</time>
   <energy>
    <i name="e_fr_energy">    -72.57042023 </i>
    <i name="e_wo_entrp">    -72.57042023 </i>
    <i name="e_0_energy">    -72.57042023 </i>
   </energy>
  </scstep>
  <scstep>
   <time name="dav">    0.63    0.63</time>
   <time name="total">    0.68    0.68</time>
   <energy>
    <i name="e_fr_energy">    -72.58145661 </i>
    <i name="e_wo_entrp">    -72.58145661 </i>
    <i name="e_0_energy">    -72.58145661 </i>
   </energy>
  </scstep>
  <scstep>
   <time name="dav">    0.65    0.65</time>
   <time name="total">    0.70    0.70</time>
   <energy>
    <i name="e_fr_energy">    -72.58204422 </i>
    <i name="e_wo_entrp">    -72.58204422 </i>
    <i name="e_0_energy">    -72.58204422 </i>
   </energy>
  </scstep>
  <scstep>
   <time name="dav">    0.61    0.61</time>
   <time name="total">    0.66    0.66</time>
   <energy>
    <i name="e_fr_energy">    -72.58236408 </i>
    <i name="e_wo_entrp">    -72.58236408 </i>
    <i name="e_0_energy">    -72.58236408 </i>
   </energy>
  </scstep>
  <scstep>
   <time name="dav">    0.65    0.65</time>
   <time name="total">    0.70    0.70</time>
   <energy>
    <i name="e_fr_energy">    -72.58237272 </i>
    <i name="e_wo_entrp">    -72.58237272 </i>
    <i name="e_0_energy">    -72.58237272 </i>
   </energy>
  </scstep>
  <scstep>
   <time name="dav">    0.50    0.50</time>
   <time name="total">    0.52    0.52</time>
   <energy>
    <i name="alphaZ">    120.39550375 </i>
    <i name="ewald">  -1413.59899669 </i>
    <i name="hartreedc">   -102.89108229 </i>
    <i name="XCdc">    119.03953734 </i>
    <i name="pawpsdc">    552.06651088 </i>
    <i name="pawaedc">   -562.31275548 </i>
    <i name="eentropy">      0.00000000 </i>
    <i name="bandstr">     37.70111815 </i>
    <i name="atom">   1177.01779097 </i>
    <i name="e_fr_energy">    -72.58237338 </i>
    <i name="e_wo_entrp">    -72.58237338 </i>
    <i name="e_0_energy">    -72.58237338 </i>
   </energy>
  </scstep>
  <structure>
   <crystal>
    <varray name="basis" >
     <v>       3.51188700      -0.00000000      -0.00000000 </v>
     <v>       0.00000000       3.51188700      -0.00000000 </v>
     <v>       0.00000000       0.00000000       3.51188700 </v>
    </varray>
    <i name="volume">     43.31333259 </i>
    <varray name="rec_basis" >
     <v>       0.28474720      -0.00000000       0.00000000 </v>
     <v>       0.00000000       0.28474720      -0.00000000 </v>
     <v>       0.00000000       0.00000000       0.28474720 </v>
    </varray>
   </crystal>
   <varray name="positions" >
    <v>       0.75669600       0.75669600       0.75669600 </v>
    <v>       0.00669500       0.50669600       0.00669500 </v>
    <v>       0.50669600       0.50669600       0.50669600 </v>
    <v>       0.00669500       0.00669500       0.50669600 </v>
    <v>       0.50669600       0.00669500       0.00669500 </v>
    <v>       0.75669600       0.25669600       0.25669600 </v>
    <v>       0.25669600       0.25669600       0.75669600 </v>
    <v>       0.25669600       0.75669600       0.25669600 </v>
   </varray>
  </structure>
  <varray name="forces" >
   <v>      -0.00000000      -0.00000000      -0.00000000 </v>
   <v>       0.00000000      -0.00000000       0.00000000 </v>
   <v>       0.00000000       0.00000000      -0.00000000 </v>
   <v>       0.00000000       0.00000000       0.00000000 </v>
   <v>       0.00000000       0.00000000       0.00000000 </v>
   <v>      -0.00000000       0.00000000      -0.00000000 </v>
   <v>      -0.00000000      -0.00000000       0.00000000 </v>
   <v>      -0.00000000       0.00000000       0.00000000 </v>
  </varray>
  <varray name="stress" >
   <v>     207.46135424      -0.00000000       0.00000000 </v>
   <v>       0.00000000     207.46135424      -0.00000000 </v>
   <v>      -0.00000000       0.00000000     207.46135424 </v>
  </varray>
  <energy>
   <i name="e_fr_energy">    -65.82386236 </i>
   <i name="e_wo_entrp">    -65.82386236 </i>
   <i name="e_0_energy">      0.00000000 </i>
  </energy>
  <time name="totalsc">    9.66    9.69</time>
 </calculation>
 <calculation>
  <scstep>
   <time name="dav">    0.61    0.61</time>
   <time name="total">    0.67    0.67</time>
   <energy>
    <i name="alphaZ">    120.47067805 </i>
    <i name="ewald">  -1413.89315000 </i>
    <i name="hartreedc">   -102.91487405 </i>
    <i name="XCdc">    119.06326828 </i>
    <i name="pawpsdc">    552.06875787 </i>
    <i name="pawaedc">   -562.31468184 </i>
    <i name="eentropy">      0.00000000 </i>
    <i name="bandstr">     37.92335962 </i>
    <i name="atom">   1177.01779097 </i>
    <i name="e_fr_energy">    -72.57885109 </i>
    <i name="e_wo_entrp">    -72.57885109 </i>
    <i name="e_0_energy">    -72.57885109 </i>
   </energy>
  </scstep>
  <scstep>
   <time name="dav">    0.66    0.66</time>
   <time name="total">    0.71    0.71</time>
   <energy>
    <i name="e_fr_energy">    -72.57884761 </i>
    <i name="e_wo_entrp">    -72.57884761 </i>
    <i name="e_0_energy">    -72.57884761 </i>
   </energy>
  </scstep>
  <scstep>
   <time name="dav">    0.58    0.58</time>
   <time name="total">    0.63    0.63</time>
   <energy>
    <i name="e_fr_energy">    -72.57884636 </i>
    <i name="e_wo_entrp">    -72.57884636 </i>
    <i name="e_0_energy">    -72.57884636 </i>
   </energy>
  </scstep>
  <scstep>
   <time name="dav">    0.44    0.44</time>
   <time name="total">    0.46    0.46</time>
   <energy>
    <i name="alphaZ">    120.47067805 </i>
    <i name="ewald">  -1413.89315000 </i>
    <i name="hartreedc">   -102.86198153 </i>
    <i name="XCdc">    119.05835137 </i>
    <i name="pawpsdc">    552.39063470 </i>
    <i name="pawaedc">   -562.63821552 </i>
    <i name="eentropy">      0.00000000 </i>
    <i name="bandstr">     37.87704551 </i>
    <i name="atom">   1177.01779097 </i>
    <i name="e_fr_energy">    -72.57884644 </i>
    <i name="e_wo_entrp">    -72.57884644 </i>
    <i name="e_0_energy">    -72.57884644 </i>
   </energy>
  </scstep>
  <structure>
   <crystal>
    <varray name="basis" >
     <v>       3.51115637      -0.00000000       0.00000000 </v>
     <v>       0.00000000       3.51115637      -0.00000000 </v>
     <v>      -0.00000000       0.00000000       3.51115637 </v>
    </varray>
    <i name="volume">     43.28630485 </i>
    <varray name="rec_basis" >
     <v>       0.28480646      -0.00000000       0.00000000 </v>
     <v>       0.00000000       0.28480646      -0.00000000 </v>
     <v>      -0.00000000       0.00000000       0.28480646 </v>
    </varray>
   </crystal>
   <varray name="positions" >
    <v>       0.75669600       0.75669600       0.75669600 </v>
    <v>       0.00669500       0.50669600       0.00669500 </v>
    <v>       0.50669600       0.50669600       0.50669600 </v>
    <v>       0.00669500       0.00669500       0.50669600 </v>
    <v>       0.50669600       0.00669500       0.00669500 </v>
    <v>       0.75669600       0.25669600       0.25669600 </v>
    <v>       0.25669600       0.25669600       0.75669600 </v>
    <v>       0.25669600       0.75669600       0.25669600 </v>
   </varray>
  </structure>
  <varray name="forces" >
   <v>       0.00000000      -0.00000000      -0.00000000 </v>
   <v>      -0.00000000       0.00000000      -0.00000000 </v>
   <v>       0.00000000      -0.00000000       0.00000000 </v>
   <v>      -0.00000000      -0.00000000       0.00000000 </v>
   <v>      -0.00000000      -0.00000000      -0.00000000 </v>
   <v>       0.00000000       0.00000000      -0.00000000 </v>
   <v>       0.00000000       0.00000000      -0.00000000 </v>
   <v>      -0.00000000       0.00000000      -0.00000000 </v>
  </varray>
  <varray name="stress" >
   <v>     210.86450151       0.00000000      -0.00000000 </v>
   <v>       0.00000000     210.86450151       0.00000000 </v>
   <v>      -0.00000000       0.00000000     210.86450151 </v>
  </varray>
  <energy>
   <i name="e_fr_energy">    -65.82455276 </i>
   <i name="e_wo_entrp">    -65.82455276 </i>
   <i name="e_0_energy">      0.00000000 </i>
  </energy>
  <time name="totalsc">    2.64    2.65</time>
 </calculation>
 <calculation>
  <scstep>
   <time name="dav">    0.63    0.63</time>
   <time name="total">    0.68    0.68</time>
   <energy>
    <i name="alphaZ">    120.69657680 </i>
    <i name="ewald">  -1414.77634488 </i>
    <i name="hartreedc">   -102.92634982 </i>
    <i name="XCdc">    119.12891844 </i>
    <i name="pawpsdc">    552.40403343 </i>
    <i name="pawaedc">   -562.65174723 </i>
    <i name="eentropy">      0.00000000 </i>
    <i name="bandstr">     38.53914657 </i>
    <i name="atom">   1177.01779097 </i>
    <i name="e_fr_energy">    -72.56797572 </i>
    <i name="e_wo_entrp">    -72.56797572 </i>
    <i name="e_0_energy">    -72.56797572 </i>
   </energy>
  </scstep>
  <scstep>
   <time name="dav">    0.66    0.66</time>
   <time name="total">    0.71    0.71</time>
   <energy>
    <i name="e_fr_energy">    -72.56793908 </i>
    <i name="e_wo_entrp">    -72.56793908 </i>
    <i name="e_0_energy">    -72.56793908 </i>
   </energy>
  </scstep>
  <scstep>
   <time name="dav">    0.60    0.60</time>
   <time name="total">    0.65    0.65</time>
   <energy>
    <i name="e_fr_energy">    -72.56792332 </i>
    <i name="e_wo_entrp">    -72.56792332 </i>
    <i name="e_0_energy">    -72.56792332 </i>
   </energy>
  </scstep>
  <scstep>
   <time name="dav">    0.44    0.44</time>
   <time name="total">    0.46    0.46</time>
   <energy>
    <i name="alphaZ">    120.69657680 </i>
    <i name="ewald">  -1414.77634488 </i>
    <i name="hartreedc">   -102.76094453 </i>
    <i name="XCdc">    119.11352996 </i>
    <i name="pawpsdc">    553.38523310 </i>
    <i name="pawaedc">   -563.63860770 </i>
    <i name="eentropy">      0.00000000 </i>
    <i name="bandstr">     38.39484278 </i>
    <i name="atom">   1177.01779097 </i>
    <i name="e_fr_energy">    -72.56792350 </i>
    <i name="e_wo_entrp">    -72.56792350 </i>
    <i name="e_0_energy">    -72.56792350 </i>
   </energy>
  </scstep>
  <structure>
   <crystal>
    <varray name="basis" >
     <v>       3.50896448      -0.00000000       0.00000000 </v>
     <v>       0.00000000       3.50896448      -0.00000000 </v>
     <v>      -0.00000000       0.00000000       3.50896448 </v>
    </varray>
    <i name="volume">     43.20528912 </i>
    <varray name="rec_basis" >
     <v>       0.28498436      -0.00000000       0.00000000 </v>
     <v>       0.00000000       0.28498436      -0.00000000 </v>
     <v>      -0.00000000       0.00000000       0.28498436 </v>
    </varray>
   </crystal>
   <varray name="positions" >
    <v>       0.75669600       0.75669600       0.75669600 </v>
    <v>       0.00669500       0.50669600       0.00669500 </v>
    <v>       0.50669600       0.50669600       0.50669600 </v>
    <v>       0.00669500       0.00669500       0.50669600 </v>
    <v>       0.50669600       0.00669500       0.00669500 </v>
    <v>       0.75669600       0.25669600       0.25669600 </v>
    <v>       0.25669600       0.25669600       0.75669600 </v>
    <v>       0.25669600       0.75669600       0.25669600 </v>
   </varray>
  </structure>
  <varray name="forces" >
   <v>       0.00000000       0.00000000       0.00000000 </v>
   <v>      -0.00000000      -0.00000000       0.00000000 </v>
   <v>      -0.00000000       0.00000000      -0.00000000 </v>
   <v>      -0.00000000      -0.00000000      -0.00000000 </v>
   <v>      -0.00000000       0.00000000       0.00000000 </v>
   <v>       0.00000000       0.00000000       0.00000000 </v>
   <v>       0.00000000      -0.00000000      -0.00000000 </v>
   <v>       0.00000000      -0.00000000       0.00000000 </v>
  </varray>
  <varray name="stress" >
   <v>     221.25797954      -0.00000000       0.00000000 </v>
   <v>      -0.00000000     221.25797954      -0.00000000 </v>
   <v>       0.00000000       0.00000000     221.25797954 </v>
  </varray>
  <energy>
   <i name="e_fr_energy">    -65.82627133 </i>
   <i name="e_wo_entrp">    -65.82627133 </i>
   <i name="e_0_energy">      0.00000000 </i>
  </energy>
  <time name="totalsc">    2.69    2.70</time>
 </calculation>
 <calculation>
  <scstep>
   <time name="dav">    0.60    0.60</time>
   <time name="total">    0.65    0.65</time>
   <energy>
    <i name="alphaZ">    121.15007148 </i>
    <i name="ewald">  -1416.54604894 </i>
    <i name="hartreedc">   -102.88986558 </i>
    <i name="XCdc">    119.25492965 </i>
    <i name="pawpsdc">    553.44744113 </i>
    <i name="pawaedc">   -563.70145982 </i>
    <i name="eentropy">      0.00000000 </i>
    <i name="bandstr">     39.72238797 </i>
    <i name="atom">   1177.01779097 </i>
    <i name="e_fr_energy">    -72.54475314 </i>
    <i name="e_wo_entrp">    -72.54475314 </i>
    <i name="e_0_energy">    -72.54475314 </i>
   </energy>
  </scstep>
  <scstep>
   <time name="dav">    0.65    0.65</time>
   <time name="total">    0.70    0.70</time>
   <energy>
    <i name="e_fr_energy">    -72.54460438 </i>
    <i name="e_wo_entrp">    -72.54460438 </i>
    <i name="e_0_energy">    -72.54460438 </i>
   </energy>
  </scstep>
  <scstep>
   <time name="dav">    0.59    0.59</time>
   <time name="total">    0.64    0.64</time>
   <energy>
    <i name="e_fr_energy">    -72.54453867 </i>
    <i name="e_wo_entrp">    -72.54453867 </i>
    <i name="e_0_energy">    -72.54453867 </i>
   </energy>
  </scstep>
  <scstep>
   <time name="dav">    0.54    0.54</time>
   <time name="total">    0.56    0.56</time>
   <energy>
    <i name="alphaZ">    121.15007148 </i>
    <i name="ewald">  -1416.54604894 </i>
    <i name="hartreedc">   -102.55875542 </i>
    <i name="XCdc">    119.22412517 </i>
    <i name="pawpsdc">    555.39591498 </i>
    <i name="pawaedc">   -565.66102431 </i>
    <i name="eentropy">      0.00000000 </i>
    <i name="bandstr">     39.43338718 </i>
    <i name="atom">   1177.01779097 </i>
    <i name="e_fr_energy">    -72.54453890 </i>
    <i name="e_wo_entrp">    -72.54453890 </i>
    <i name="e_0_energy">    -72.54453890 </i>
   </energy>
  </scstep>
  <structure>
   <crystal>
    <varray name="basis" >
     <v>       3.50458070      -0.00000000       0.00000000 </v>
     <v>       0.00000000       3.50458070      -0.00000000 </v>
     <v>      -0.00000000       0.00000000       3.50458070 </v>
    </varray>
    <i name="volume">     43.04356103 </i>
    <varray name="rec_basis" >
     <v>       0.28534084      -0.00000000       0.00000000 </v>
     <v>       0.00000000       0.28534084      -0.00000000 </v>
     <v>      -0.00000000       0.00000000       0.28534084 </v>
    </varray>
   </crystal>
   <varray name="positions" >
    <v>       0.75669600       0.75669600       0.75669600 </v>
    <v>       0.00669500       0.50669600       0.00669500 </v>
    <v>       0.50669600       0.50669600       0.50669600 </v>
    <v>       0.00669500       0.00669500       0.50669600 </v>
    <v>       0.50669600       0.00669500       0.00669500 </v>
    <v>       0.75669600       0.25669600       0.25669600 </v>
    <v>       0.25669600       0.25669600       0.75669600 </v>
    <v>       0.25669600       0.75669600       0.25669600 </v>
   </varray>
  </structure>
  <varray name="forces" >
   <v>       0.00000000      -0.00000000       0.00000000 </v>
   <v>      -0.00000000       0.00000000      -0.00000000 </v>
   <v>      -0.00000000       0.00000000      -0.00000000 </v>
   <v>       0.00000000      -0.00000000       0.00000000 </v>
   <v>      -0.00000000       0.00000000      -0.00000000 </v>
   <v>      -0.00000000       0.00000000       0.00000000 </v>
   <v>      -0.00000000      -0.00000000      -0.00000000 </v>
   <v>       0.00000000      -0.00000000       0.00000000 </v>
  </varray>
  <varray name="stress" >
   <v>     242.24555216       0.00000000      -0.00000000 </v>
   <v>      -0.00000000     242.24555216       0.00000000 </v>
   <v>       0.00000000      -0.00000000     242.24555216 </v>
  </varray>
  <energy>
   <i name="e_fr_energy">    -65.82812240 </i>
   <i name="e_wo_entrp">    -65.82812240 </i>
   <i name="e_0_energy">      0.00000000 </i>
  </energy>
  <time name="totalsc">    2.73    2.74</time>
 </calculation>
 <calculation>
  <scstep>
   <time name="dav">    0.60    0.60</time>
   <time name="total">    0.65    0.65</time>
   <energy>
    <i name="alphaZ">    121.31734107 </i>
    <i name="ewald">  -1417.19768184 </i>
    <i name="hartreedc">   -102.60670660 </i>
    <i name="XCdc">    119.27625509 </i>
    <i name="pawpsdc">    555.51631869 </i>
    <i name="pawaedc">   -565.78267949 </i>
    <i name="eentropy">      0.00000000 </i>
    <i name="bandstr">     39.92390940 </i>
    <i name="atom">   1177.01779097 </i>
    <i name="e_fr_energy">    -72.53545270 </i>
    <i name="e_wo_entrp">    -72.53545270 </i>
    <i name="e_0_energy">    -72.53545270 </i>
   </energy>
  </scstep>
  <scstep>
   <time name="dav">    0.65    0.65</time>
   <time name="total">    0.70    0.70</time>
   <energy>
    <i name="e_fr_energy">    -72.53543301 </i>
    <i name="e_wo_entrp">    -72.53543301 </i>
    <i name="e_0_energy">    -72.53543301 </i>
   </energy>
  </scstep>
  <scstep>
   <time name="dav">    0.60    0.60</time>
   <time name="total">    0.65    0.65</time>
   <energy>
    <i name="e_fr_energy">    -72.53542476 </i>
    <i name="e_wo_entrp">    -72.53542476 </i>
    <i name="e_0_energy">    -72.53542476 </i>
   </energy>
  </scstep>
  <scstep>
   <time name="dav">    0.42    0.42</time>
   <time name="total">    0.44    0.44</time>
   <energy>
    <i name="alphaZ">    121.31734107 </i>
    <i name="ewald">  -1417.19768184 </i>
    <i name="hartreedc">   -102.48475871 </i>
    <i name="XCdc">    119.26491020 </i>
    <i name="pawpsdc">    556.22754381 </i>
    <i name="pawaedc">   -566.49790340 </i>
    <i name="eentropy">      0.00000000 </i>
    <i name="bandstr">     39.81733297 </i>
    <i name="atom">   1177.01779097 </i>
    <i name="e_fr_energy">    -72.53542491 </i>
    <i name="e_wo_entrp">    -72.53542491 </i>
    <i name="e_0_energy">    -72.53542491 </i>
   </energy>
  </scstep>
  <structure>
   <crystal>
    <varray name="basis" >
     <v>       3.50296928      -0.00000000       0.00000000 </v>
     <v>       0.00000000       3.50296928      -0.00000000 </v>
     <v>      -0.00000000       0.00000000       3.50296928 </v>
    </varray>
    <i name="volume">     42.98421355 </i>
    <varray name="rec_basis" >
     <v>       0.28547210      -0.00000000       0.00000000 </v>
     <v>       0.00000000       0.28547210      -0.00000000 </v>
     <v>      -0.00000000       0.00000000       0.28547210 </v>
    </varray>
   </crystal>
   <varray name="positions" >
    <v>       0.75669600       0.75669600       0.75669600 </v>
    <v>       0.00669500       0.50669600       0.00669500 </v>
    <v>       0.50669600       0.50669600       0.50669600 </v>
    <v>       0.00669500       0.00669500       0.50669600 </v>
    <v>       0.50669600       0.00669500       0.00669500 </v>
    <v>       0.75669600       0.25669600       0.25669600 </v>
    <v>       0.25669600       0.25669600       0.75669600 </v>
    <v>       0.25669600       0.75669600       0.25669600 </v>
   </varray>
  </structure>
  <varray name="forces" >
   <v>       0.00000000      -0.00000000       0.00000000 </v>
   <v>      -0.00000000       0.00000000      -0.00000000 </v>
   <v>       0.00000000       0.00000000       0.00000000 </v>
   <v>       0.00000000       0.00000000       0.00000000 </v>
   <v>      -0.00000000       0.00000000      -0.00000000 </v>
   <v>       0.00000000      -0.00000000       0.00000000 </v>
   <v>      -0.00000000      -0.00000000       0.00000000 </v>
   <v>      -0.00000000      -0.00000000      -0.00000000 </v>
  </varray>
  <varray name="stress" >
   <v>     249.99070429      -0.00000000       0.00000000 </v>
   <v>       0.00000000     249.99070429      -0.00000000 </v>
   <v>      -0.00000000       0.00000000     249.99070429 </v>
  </varray>
  <energy>
   <i name="e_fr_energy">    -65.82826885 </i>
   <i name="e_wo_entrp">    -65.82826885 </i>
   <i name="e_0_energy">      0.00000000 </i>
  </energy>
  <time name="totalsc">    2.59    2.60</time>
  <eigenvalues>
   <array>
    <dimension dim="1">band</dimension>
    <dimension dim="2">kpoint</dimension>
    <dimension dim="3">spin</dimension>
    <field>eigene</field>
    <field>occ</field>
    <set>
     <set comment="spin 1">
      <set comment="kpoint 1">
       <r>  -11.6620    1.0000 </r>
       <r>   -2.6000    1.0000 </r>
       <r>   -2.6000    1.0000 </r>
       <r>   -2.6000    1.0000 </r>
       <r>   -2.6000    1.0000 </r>
       <r>   -2.5999    1.0000 </r>
       <r>   -2.5999    1.0000 </r>
       <r>    3.9270    1.0000 </r>
       <r>    3.9270    1.0000 </r>
       <r>    3.9270    1.0000 </r>
       <r>    3.9271    1.0000 </r>
       <r>    3.9271    1.0000 </r>
       <r>    3.9271    1.0000 </r>
       <r>   10.5727    1.0000 </r>
       <r>   10.5727    1.0000 </r>
       <r>   10.5728    1.0000 </r>
       <r>   15.4334    0.0000 </r>
       <r>   15.4334    0.0000 </r>
       <r>   15.4334    0.0000 </r>
       <r>   15.4335    0.0000 </r>
       <r>   15.4335    0.0000 </r>
       <r>   15.4336    0.0000 </r>
       <r>   16.3111    0.0000 </r>
       <r>   16.3112    0.0000 </r>
       <r>   16.3112    0.0000 </r>
       <r>   25.1450    0.0000 </r>
       <r>   28.2903    0.0000 </r>
       <r>   28.2903    0.0000 </r>
      </set>
      <set comment="kpoint 2">
       <r>  -11.5123    1.0000 </r>
       <r>   -4.6047    1.0000 </r>
       <r>   -2.5013    1.0000 </r>
       <r>   -2.5013    1.0000 </r>
       <r>   -2.5013    1.0000 </r>
       <r>   -2.5012    1.0000 </r>
       <r>   -0.4540    1.0000 </r>
       <r>    3.6013    1.0000 </r>
       <r>    3.6014    1.0000 </r>
       <r>    3.6014    1.0000 </r>
       <r>    3.6014    1.0000 </r>
       <r>    4.0727    1.0000 </r>
       <r>    4.0727    1.0000 </r>
       <r>    9.9795    1.0000 </r>
       <r>    9.9795    1.0000 </r>
       <r>   10.2223    1.0000 </r>
       <r>   14.9755    0.0000 </r>
       <r>   16.0370    0.0000 </r>
       <r>   16.0370    0.0000 </r>
       <r>   16.0370    0.0000 </r>
       <r>   16.0371    0.0000 </r>
       <r>   16.2058    0.0000 </r>
       <r>   16.2327    0.0000 </r>
       <r>   17.0433    0.0000 </r>
       <r>   17.0434    0.0000 </r>
       <r>   25.2071    0.0000 </r>
       <r>   27.7676    0.0000 </r>
       <r>   27.7686    0.0000 </r>
      </set>
      <set comment="kpoint 3">
       <r>  -11.0644    1.0000 </r>
       <r>   -6.4111    1.0000 </r>
       <r>   -2.2306    1.0000 </r>
       <r>   -2.2306    1.0000 </r>
       <r>   -2.2306    1.0000 </r>
       <r>   -2.2305    1.0000 </r>
       <r>    1.7564    1.0000 </r>
       <r>    2.8471    1.0000 </r>
       <r>    2.8471    1.0000 </r>
       <r>    2.8471    1.0000 </r>
       <r>    2.8471    1.0000 </r>
       <r>    4.5097    1.0000 </r>
       <r>    4.5097    1.0000 </r>
       <r>    8.7349    1.0000 </r>
       <r>    8.7349    1.0000 </r>
       <r>    9.2378    1.0000 </r>
       <r>   14.8118    0.0000 </r>
       <r>   15.8960    0.0000 </r>
       <r>   17.4373    0.0000 </r>
       <r>   17.6342    0.0000 </r>
       <r>   17.6342    0.0000 </r>
       <r>   17.6343    0.0000 </r>
       <r>   17.6343    0.0000 </r>
       <r>   18.6798    0.0000 </r>
       <r>   18.6798    0.0000 </r>
       <r>   24.9078    0.0000 </r>
       <r>   26.4477    0.0000 </r>
       <r>   26.4478    0.0000 </r>
      </set>
      <set comment="kpoint 4">
       <r>  -10.3216    1.0000 </r>
       <r>   -7.9814    1.0000 </r>
       <r>   -1.8918    1.0000 </r>
       <r>   -1.8918    1.0000 </r>
       <r>   -1.8918    1.0000 </r>
       <r>   -1.8917    1.0000 </r>
       <r>    2.0892    1.0000 </r>
       <r>    2.0892    1.0000 </r>
       <r>    2.0892    1.0000 </r>
       <r>    2.0892    1.0000 </r>
       <r>    3.9349    1.0000 </r>
       <r>    5.2284    1.0000 </r>
       <r>    5.2284    1.0000 </r>
       <r>    7.4070    1.0000 </r>
       <r>    7.4070    1.0000 </r>
       <r>    7.7784    1.0000 </r>
       <r>   14.8892    0.0000 </r>
       <r>   15.5080    0.0000 </r>
       <r>   19.0890    0.0000 </r>
       <r>   19.7825    0.0000 </r>
       <r>   19.7825    0.0000 </r>
       <r>   19.7825    0.0000 </r>
       <r>   19.7826    0.0000 </r>
       <r>   20.6481    0.0000 </r>
       <r>   20.6481    0.0000 </r>
       <r>   23.3802    0.0000 </r>
       <r>   24.6690    0.0000 </r>
       <r>   24.6690    0.0000 </r>
      </set>
      <set comment="kpoint 5">
       <r>   -9.2906    1.0000 </r>
       <r>   -9.2905    1.0000 </r>
       <r>   -1.7183    1.0000 </r>
       <r>   -1.7182    1.0000 </r>
       <r>   -1.7182    1.0000 </r>
       <r>   -1.7181    1.0000 </r>
       <r>    1.7574    1.0000 </r>
       <r>    1.7574    1.0000 </r>
       <r>    1.7575    1.0000 </r>
       <r>    1.7575    1.0000 </r>
       <r>    5.9734    1.0000 </r>
       <r>    5.9735    1.0000 </r>
       <r>    6.2057    1.0000 </r>
       <r>    6.2057    1.0000 </r>
       <r>    6.2058    1.0000 </r>
       <r>    6.2058    1.0000 </r>
       <r>   15.1405    0.0000 </r>
       <r>   15.1406    0.0000 </r>
       <r>   21.1570    0.0000 </r>
       <r>   21.1571    0.0000 </r>
       <r>   21.4440    0.0000 </r>
       <r>   21.4440    0.0000 </r>
       <r>   21.4441    0.0000 </r>
       <r>   21.4441    0.0000 </r>
       <r>   22.6779    0.0000 </r>
       <r>   22.6779    0.0000 </r>
       <r>   22.6779    0.0000 </r>
       <r>   22.6779    0.0000 </r>
      </set>
      <set comment="kpoint 6">
       <r>  -11.3628    1.0000 </r>
       <r>   -4.4816    1.0000 </r>
       <r>   -4.4816    1.0000 </r>
       <r>   -2.4920    1.0000 </r>
       <r>   -2.3341    1.0000 </r>
       <r>   -0.4086    1.0000 </r>
       <r>   -0.4086    1.0000 </r>
       <r>    2.5837    1.0000 </r>
       <r>    3.7101    1.0000 </r>
       <r>    3.7101    1.0000 </r>
       <r>    3.8154    1.0000 </r>
       <r>    3.8155    1.0000 </r>
       <r>    4.1792    1.0000 </r>
       <r>    9.0904    1.0000 </r>
       <r>    9.4288    1.0000 </r>
       <r>   10.3857    1.0000 </r>
       <r>   15.5993    0.0000 </r>
       <r>   15.5994    0.0000 </r>
       <r>   15.6713    0.0000 </r>
       <r>   16.6237    0.0000 </r>
       <r>   16.8112    0.0000 </r>
       <r>   16.8113    0.0000 </r>
       <r>   17.2109    0.0000 </r>
       <r>   17.4285    0.0000 </r>
       <r>   17.5183    0.0000 </r>
       <r>   25.3055    0.0000 </r>
       <r>   27.2191    0.0000 </r>
       <r>   27.2191    0.0000 </r>
      </set>
      <set comment="kpoint 7">
       <r>  -10.9156    1.0000 </r>
       <r>   -6.2759    1.0000 </r>
       <r>   -4.1230    1.0000 </r>
       <r>   -2.4060    1.0000 </r>
       <r>   -1.9722    1.0000 </r>
       <r>   -0.3377    1.0000 </r>
       <r>    1.5553    1.0000 </r>
       <r>    1.6695    1.0000 </r>
       <r>    2.8525    1.0000 </r>
       <r>    3.2760    1.0000 </r>
       <r>    4.1075    1.0000 </r>
       <r>    4.1224    1.0000 </r>
       <r>    4.3993    1.0000 </r>
       <r>    7.7694    1.0000 </r>
       <r>    8.2398    1.0000 </r>
       <r>    9.7760    1.0000 </r>
       <r>   15.4474    0.0000 </r>
       <r>   16.4974    0.0000 </r>
       <r>   16.4979    0.0000 </r>
       <r>   17.2396    0.0000 </r>
       <r>   17.9768    0.0000 </r>
       <r>   18.3372    0.0000 </r>
       <r>   18.6581    0.0000 </r>
       <r>   18.7536    0.0000 </r>
       <r>   19.4705    0.0000 </r>
       <r>   25.1189    0.0000 </r>
       <r>   25.7285    0.0000 </r>
       <r>   25.8157    0.0000 </r>
      </set>
      <set comment="kpoint 8">
       <r>  -10.1741    1.0000 </r>
       <r>   -7.8398    1.0000 </r>
       <r>   -3.5724    1.0000 </r>
       <r>   -2.4886    1.0000 </r>
       <r>   -1.4486    1.0000 </r>
       <r>   -0.4425    1.0000 </r>
       <r>    0.9797    1.0000 </r>
       <r>    1.8925    1.0000 </r>
       <r>    2.9349    1.0000 </r>
       <r>    3.5185    1.0000 </r>
       <r>    3.6117    1.0000 </r>
       <r>    4.8198    1.0000 </r>
       <r>    5.4546    1.0000 </r>
       <r>    6.3839    1.0000 </r>
       <r>    6.9458    1.0000 </r>
       <r>    8.5264    1.0000 </r>
       <r>   15.5288    0.0000 </r>
       <r>   16.1327    0.0000 </r>
       <r>   18.2391    0.0000 </r>
       <r>   19.4669    0.0000 </r>
       <r>   19.5760    0.0000 </r>
       <r>   20.2602    0.0000 </r>
       <r>   20.4100    0.0000 </r>
       <r>   20.6141    0.0000 </r>
       <r>   21.7644    0.0000 </r>
       <r>   23.7166    0.0000 </r>
       <r>   23.7854    0.0000 </r>
       <r>   24.0912    0.0000 </r>
      </set>
      <set comment="kpoint 9">
       <r>   -9.1452    1.0000 </r>
       <r>   -9.1451    1.0000 </r>
       <r>   -2.9439    1.0000 </r>
       <r>   -2.9438    1.0000 </r>
       <r>   -0.8681    1.0000 </r>
       <r>   -0.8680    1.0000 </r>
       <r>    1.1558    1.0000 </r>
       <r>    1.1558    1.0000 </r>
       <r>    3.0980    1.0000 </r>
       <r>    3.0981    1.0000 </r>
       <r>    5.0156    1.0000 </r>
       <r>    5.0157    1.0000 </r>
       <r>    5.7752    1.0000 </r>
       <r>    5.7753    1.0000 </r>
       <r>    6.9606    1.0000 </r>
       <r>    6.9607    1.0000 </r>
       <r>   15.7778    0.0000 </r>
       <r>   15.7779    0.0000 </r>
       <r>   20.2775    0.0000 </r>
       <r>   20.2776    0.0000 </r>
       <r>   21.5639    0.0000 </r>
       <r>   21.5639    0.0000 </r>
       <r>   21.8361    0.0000 </r>
       <r>   21.8361    0.0000 </r>
       <r>   22.2602    0.0000 </r>
       <r>   22.2602    0.0000 </r>
       <r>   22.6797    0.0000 </r>
       <r>   22.6797    0.0000 </r>
      </set>
      <set comment="kpoint 10">
       <r>  -10.4705    1.0000 </r>
       <r>   -5.8760    1.0000 </r>
       <r>   -5.8760    1.0000 </r>
       <r>   -2.7460    1.0000 </r>
       <r>   -1.5392    1.0000 </r>
       <r>    0.7111    1.0000 </r>
       <r>    1.3186    1.0000 </r>
       <r>    1.3186    1.0000 </r>
       <r>    3.2030    1.0000 </r>
       <r>    3.2030    1.0000 </r>
       <r>    4.2848    1.0000 </r>
       <r>    4.2849    1.0000 </r>
       <r>    4.9120    1.0000 </r>
       <r>    6.4372    1.0000 </r>
       <r>    7.1313    1.0000 </r>
       <r>    9.7795    1.0000 </r>
       <r>   16.3785    0.0000 </r>
       <r>   17.0980    0.0000 </r>
       <r>   17.0980    0.0000 </r>
       <r>   17.5328    0.0000 </r>
       <r>   18.9751    0.0000 </r>
       <r>   19.1135    0.0000 </r>
       <r>   19.3797    0.0000 </r>
       <r>   19.3798    0.0000 </r>
       <r>   21.7193    0.0000 </r>
       <r>   24.2275    0.0000 </r>
       <r>   24.2276    0.0000 </r>
       <r>   25.3312    0.0000 </r>
      </set>
      <set comment="kpoint 11">
       <r>   -9.7332    1.0000 </r>
       <r>   -7.4181    1.0000 </r>
       <r>   -5.2312    1.0000 </r>
       <r>   -3.4739    1.0000 </r>
       <r>   -0.9209    1.0000 </r>
       <r>    0.6524    1.0000 </r>
       <r>    0.6545    1.0000 </r>
       <r>    2.1478    1.0000 </r>
       <r>    2.6383    1.0000 </r>
       <r>    3.8545    1.0000 </r>
       <r>    4.4388    1.0000 </r>
       <r>    5.0648    1.0000 </r>
       <r>    5.1000    1.0000 </r>
       <r>    5.8433    1.0000 </r>
       <r>    5.8950    1.0000 </r>
       <r>    8.9647    1.0000 </r>
       <r>   17.1659    0.0000 </r>
       <r>   17.3841    0.0000 </r>
       <r>   17.6151    0.0000 </r>
       <r>   19.3271    0.0000 </r>
       <r>   19.9167    0.0000 </r>
       <r>   20.5932    0.0000 </r>
       <r>   20.6065    0.0000 </r>
       <r>   20.7388    0.0000 </r>
       <r>   22.7740    0.0000 </r>
       <r>   22.9001    0.0000 </r>
       <r>   23.7901    0.0000 </r>
       <r>   24.3575    0.0000 </r>
      </set>
      <set comment="kpoint 12">
       <r>   -8.7113    1.0000 </r>
       <r>   -8.7112    1.0000 </r>
       <r>   -4.3902    1.0000 </r>
       <r>   -4.3901    1.0000 </r>
       <r>   -0.1565    1.0000 </r>
       <r>   -0.1565    1.0000 </r>
       <r>    1.2270    1.0000 </r>
       <r>    1.2270    1.0000 </r>
       <r>    3.8421    1.0000 </r>
       <r>    3.8422    1.0000 </r>
       <r>    4.7707    1.0000 </r>
       <r>    4.7707    1.0000 </r>
       <r>    4.7895    1.0000 </r>
       <r>    4.7896    1.0000 </r>
       <r>    7.5422    1.0000 </r>
       <r>    7.5423    1.0000 </r>
       <r>   17.3713    0.0000 </r>
       <r>   17.3714    0.0000 </r>
       <r>   19.1637    0.0000 </r>
       <r>   19.1638    0.0000 </r>
       <r>   21.0136    0.0000 </r>
       <r>   21.0136    0.0000 </r>
       <r>   21.7625    0.0000 </r>
       <r>   21.7626    0.0000 </r>
       <r>   22.6801    0.0000 </r>
       <r>   22.6801    0.0000 </r>
       <r>   22.8620    0.0000 </r>
       <r>   22.8620    0.0000 </r>
      </set>
      <set comment="kpoint 13">
       <r>   -9.0038    1.0000 </r>
       <r>   -6.7273    1.0000 </r>
       <r>   -6.7273    1.0000 </r>
       <r>   -4.6648    1.0000 </r>
       <r>   -0.2267    1.0000 </r>
       <r>    0.9919    1.0000 </r>
       <r>    1.6230    1.0000 </r>
       <r>    1.6230    1.0000 </r>
       <r>    2.7459    1.0000 </r>
       <r>    2.7459    1.0000 </r>
       <r>    3.8329    1.0000 </r>
       <r>    4.7073    1.0000 </r>
       <r>    6.0355    1.0000 </r>
       <r>    6.1969    1.0000 </r>
       <r>    6.1970    1.0000 </r>
       <r>    8.7273    1.0000 </r>
       <r>   17.4860    0.0000 </r>
       <r>   19.0053    0.0000 </r>
       <r>   19.3280    0.0000 </r>
       <r>   19.3280    0.0000 </r>
       <r>   19.5854    0.0000 </r>
       <r>   20.2314    0.0000 </r>
       <r>   20.2315    0.0000 </r>
       <r>   21.0787    0.0000 </r>
       <r>   23.2747    0.0000 </r>
       <r>   23.2891    0.0000 </r>
       <r>   23.2892    0.0000 </r>
       <r>   24.8651    0.0000 </r>
      </set>
      <set comment="kpoint 14">
       <r>   -7.9959    1.0000 </r>
       <r>   -7.9958    1.0000 </r>
       <r>   -5.7918    1.0000 </r>
       <r>   -5.7917    1.0000 </r>
       <r>    0.6363    1.0000 </r>
       <r>    0.6364    1.0000 </r>
       <r>    1.7413    1.0000 </r>
       <r>    1.7414    1.0000 </r>
       <r>    2.6654    1.0000 </r>
       <r>    2.6655    1.0000 </r>
       <r>    3.6208    1.0000 </r>
       <r>    3.6208    1.0000 </r>
       <r>    6.3498    1.0000 </r>
       <r>    6.3499    1.0000 </r>
       <r>    7.7443    1.0000 </r>
       <r>    7.7444    1.0000 </r>
       <r>   18.5791    0.0000 </r>
       <r>   18.5791    0.0000 </r>
       <r>   19.3532    0.0000 </r>
       <r>   19.3532    0.0000 </r>
       <r>   19.7083    0.0000 </r>
       <r>   19.7084    0.0000 </r>
       <r>   21.5759    0.0000 </r>
       <r>   21.5760    0.0000 </r>
       <r>   22.8002    0.0000 </r>
       <r>   22.8003    0.0000 </r>
       <r>   24.3670    0.0000 </r>
       <r>   24.3671    0.0000 </r>
      </set>
      <set comment="kpoint 15">
       <r>   -7.0134    1.0000 </r>
       <r>   -7.0132    1.0000 </r>
       <r>   -7.0132    1.0000 </r>
       <r>   -7.0132    1.0000 </r>
       <r>    1.5795    1.0000 </r>
       <r>    1.5795    1.0000 </r>
       <r>    1.5796    1.0000 </r>
       <r>    1.5796    1.0000 </r>
       <r>    2.5697    1.0000 </r>
       <r>    2.5698    1.0000 </r>
       <r>    2.5698    1.0000 </r>
       <r>    2.5698    1.0000 </r>
       <r>    7.3912    1.0000 </r>
       <r>    7.3912    1.0000 </r>
       <r>    7.3913    1.0000 </r>
       <r>    7.3914    1.0000 </r>
       <r>   18.7695    0.0000 </r>
       <r>   18.7696    0.0000 </r>
       <r>   18.7696    0.0000 </r>
       <r>   18.7696    0.0000 </r>
       <r>   20.9712    0.0000 </r>
       <r>   20.9712    0.0000 </r>
       <r>   20.9713    0.0000 </r>
       <r>   20.9713    0.0000 </r>
       <r>   23.5234    0.0000 </r>
       <r>   23.5235    0.0000 </r>
       <r>   23.5235    0.0000 </r>
       <r>   23.5235    0.0000 </r>
      </set>
      <set comment="kpoint 16">
       <r>  -11.2136    1.0000 </r>
       <r>   -4.3630    1.0000 </r>
       <r>   -4.3630    1.0000 </r>
       <r>   -4.3630    1.0000 </r>
       <r>   -0.4049    1.0000 </r>
       <r>   -0.4048    1.0000 </r>
       <r>   -0.4048    1.0000 </r>
       <r>    2.8160    1.0000 </r>
       <r>    2.8161    1.0000 </r>
       <r>    2.8161    1.0000 </r>
       <r>    4.3209    1.0000 </r>
       <r>    4.3209    1.0000 </r>
       <r>    4.3209    1.0000 </r>
       <r>    8.0473    1.0000 </r>
       <r>    9.8781    1.0000 </r>
       <r>    9.8781    1.0000 </r>
       <r>   15.6615    0.0000 </r>
       <r>   15.6615    0.0000 </r>
       <r>   15.6616    0.0000 </r>
       <r>   17.2272    0.0000 </r>
       <r>   17.2272    0.0000 </r>
       <r>   17.7266    0.0000 </r>
       <r>   17.7672    0.0000 </r>
       <r>   17.7672    0.0000 </r>
       <r>   17.7672    0.0000 </r>
       <r>   25.4313    0.0000 </r>
       <r>   27.0130    0.0000 </r>
       <r>   27.0132    0.0000 </r>
      </set>
      <set comment="kpoint 17">
       <r>  -10.7670    1.0000 </r>
       <r>   -6.1424    1.0000 </r>
       <r>   -4.0253    1.0000 </r>
       <r>   -4.0252    1.0000 </r>
       <r>   -0.5237    1.0000 </r>
       <r>   -0.5237    1.0000 </r>
       <r>    1.4181    1.0000 </r>
       <r>    1.9930    1.0000 </r>
       <r>    1.9930    1.0000 </r>
       <r>    3.6171    1.0000 </r>
       <r>    4.2669    1.0000 </r>
       <r>    4.2669    1.0000 </r>
       <r>    4.7455    1.0000 </r>
       <r>    6.6486    1.0000 </r>
       <r>    8.7612    1.0000 </r>
       <r>    9.5733    1.0000 </r>
       <r>   15.7131    0.0000 </r>
       <r>   16.5627    0.0000 </r>
       <r>   16.5627    0.0000 </r>
       <r>   16.9786    0.0000 </r>
       <r>   18.6423    0.0000 </r>
       <r>   18.7072    0.0000 </r>
       <r>   18.7585    0.0000 </r>
       <r>   19.7083    0.0000 </r>
       <r>   19.7084    0.0000 </r>
       <r>   25.3450    0.0000 </r>
       <r>   25.6542    0.0000 </r>
       <r>   25.6729    0.0000 </r>
      </set>
      <set comment="kpoint 18">
       <r>  -10.0269    1.0000 </r>
       <r>   -7.6989    1.0000 </r>
       <r>   -3.5544    1.0000 </r>
       <r>   -3.5543    1.0000 </r>
       <r>   -0.9706    1.0000 </r>
       <r>   -0.9705    1.0000 </r>
       <r>    1.7293    1.0000 </r>
       <r>    1.7294    1.0000 </r>
       <r>    2.8020    1.0000 </r>
       <r>    3.8583    1.0000 </r>
       <r>    3.8583    1.0000 </r>
       <r>    5.1096    1.0000 </r>
       <r>    5.2681    1.0000 </r>
       <r>    5.4422    1.0000 </r>
       <r>    7.5212    1.0000 </r>
       <r>    8.4682    1.0000 </r>
       <r>   15.9001    0.0000 </r>
       <r>   16.5940    0.0000 </r>
       <r>   18.3102    0.0000 </r>
       <r>   18.3103    0.0000 </r>
       <r>   20.1660    0.0000 </r>
       <r>   20.3605    0.0000 </r>
       <r>   20.3796    0.0000 </r>
       <r>   21.8052    0.0000 </r>
[...]
        <r>  0.0000  0.0019  0.0074  0.0019  0.0000  0.0000  0.0000  0.0000  0.0000 </r>
        <r>  0.2010  0.0019  0.0000  0.0019  0.0000  0.0000  0.0000  0.0000  0.0000 </r>
        <r>  0.0502  0.0074  0.0019  0.0000  0.0000  0.0000  0.0000  0.0000  0.0000 </r>
        <r>  0.0502  0.0074  0.0019  0.0000  0.0000  0.0000  0.0000  0.0000  0.0000 </r>
        <r>  0.2010  0.0019  0.0000  0.0019  0.0000  0.0000  0.0000  0.0000  0.0000 </r>
        <r>  0.0503  0.0000  0.0019  0.0074  0.0000  0.0000  0.0000  0.0000  0.0000 </r>
       </set>
       <set comment="band 5">
        <r>  0.0000  0.0104  0.0434  0.0113  0.0000  0.0000  0.0000  0.0000  0.0000 </r>
        <r>  0.0126  0.0000  0.0113  0.0434  0.0000  0.0000  0.0000  0.0000  0.0000 </r>
        <r>  0.0000  0.0104  0.0434  0.0113  0.0000  0.0000  0.0000  0.0000  0.0000 </r>
        <r>  0.0524  0.0113  0.0000  0.0104  0.0000  0.0000  0.0000  0.0000  0.0000 </r>
        <r>  0.0136  0.0434  0.0104  0.0000  0.0000  0.0000  0.0000  0.0000  0.0000 </r>
        <r>  0.0136  0.0434  0.0104  0.0000  0.0000  0.0000  0.0000  0.0000  0.0000 </r>
        <r>  0.0524  0.0113  0.0000  0.0104  0.0000  0.0000  0.0000  0.0000  0.0000 </r>
        <r>  0.0126  0.0000  0.0113  0.0434  0.0000  0.0000  0.0000  0.0000  0.0000 </r>
       </set>
       <set comment="band 6">
        <r>  0.0000  0.0330  0.0000  0.0321  0.0000  0.0000  0.0000  0.0000  0.0000 </r>
        <r>  0.0398  0.0000  0.0321  0.0000  0.0000  0.0000  0.0000  0.0000  0.0000 </r>
        <r>  0.0000  0.0330  0.0000  0.0321  0.0000  0.0000  0.0000  0.0000  0.0000 </r>
        <r>  0.0000  0.0321  0.0000  0.0330  0.0000  0.0000  0.0000  0.0000  0.0000 </r>
        <r>  0.0388  0.0000  0.0330  0.0000  0.0000  0.0000  0.0000  0.0000  0.0000 </r>
        <r>  0.0388  0.0000  0.0330  0.0000  0.0000  0.0000  0.0000  0.0000  0.0000 </r>
        <r>  0.0000  0.0321  0.0000  0.0330  0.0000  0.0000  0.0000  0.0000  0.0000 </r>
        <r>  0.0398  0.0000  0.0321  0.0000  0.0000  0.0000  0.0000  0.0000  0.0000 </r>
       </set>
       <set comment="band 7">
        <r>  0.0055  0.0202  0.0202  0.0202  0.0000  0.0000  0.0000  0.0000  0.0000 </r>
        <r>  0.0017  0.0610  0.0014  0.0014  0.0000  0.0000  0.0000  0.0000  0.0000 </r>
        <r>  0.0735  0.0014  0.0014  0.0014  0.0000  0.0000  0.0000  0.0000  0.0000 </r>
        <r>  0.0017  0.0014  0.0610  0.0014  0.0000  0.0000  0.0000  0.0000  0.0000 </r>
        <r>  0.0017  0.0014  0.0014  0.0610  0.0000  0.0000  0.0000  0.0000  0.0000 </r>
        <r>  0.0244  0.0202  0.0202  0.0046  0.0000  0.0000  0.0000  0.0000  0.0000 </r>
        <r>  0.0244  0.0202  0.0046  0.0202  0.0000  0.0000  0.0000  0.0000  0.0000 </r>
        <r>  0.0244  0.0046  0.0202  0.0202  0.0000  0.0000  0.0000  0.0000  0.0000 </r>
       </set>
       <set comment="band 8">
        <r>  0.0731  0.0015  0.0015  0.0015  0.0000  0.0000  0.0000  0.0000  0.0000 </r>
        <r>  0.0245  0.0042  0.0203  0.0203  0.0000  0.0000  0.0000  0.0000  0.0000 </r>
        <r>  0.0050  0.0203  0.0203  0.0203  0.0000  0.0000  0.0000  0.0000  0.0000 </r>
        <r>  0.0245  0.0203  0.0042  0.0203  0.0000  0.0000  0.0000  0.0000  0.0000 </r>
        <r>  0.0245  0.0203  0.0203  0.0042  0.0000  0.0000  0.0000  0.0000  0.0000 </r>
        <r>  0.0018  0.0015  0.0015  0.0606  0.0000  0.0000  0.0000  0.0000  0.0000 </r>
        <r>  0.0018  0.0015  0.0606  0.0015  0.0000  0.0000  0.0000  0.0000  0.0000 </r>
        <r>  0.0018  0.0606  0.0015  0.0015  0.0000  0.0000  0.0000  0.0000  0.0000 </r>
       </set>
       <set comment="band 9">
        <r>  0.0000  0.1614  0.0257  0.0599  0.0000  0.0000  0.0000  0.0000  0.0000 </r>
        <r>  0.0000  0.1091  0.0522  0.0599  0.0000  0.0000  0.0000  0.0000  0.0000 </r>
        <r>  0.0000  0.0146  0.0023  0.0054  0.0000  0.0000  0.0000  0.0000  0.0000 </r>
        <r>  0.0000  0.0243  0.0174  0.0013  0.0000  0.0000  0.0000  0.0000  0.0000 </r>
        <r>  0.0000  0.0391  0.0083  0.0405  0.0000  0.0000  0.0000  0.0000  0.0000 </r>
        <r>  0.0000  0.0072  0.0401  0.0009  0.0000  0.0000  0.0000  0.0000  0.0000 </r>
        <r>  0.0000  0.0160  0.0004  0.0406  0.0000  0.0000  0.0000  0.0000  0.0000 </r>
        <r>  0.0000  0.0024  0.0140  0.0057  0.0000  0.0000  0.0000  0.0000  0.0000 </r>
       </set>
       <set comment="band 10">
        <r>  0.0000  0.0033  0.1389  0.1048  0.0000  0.0000  0.0000  0.0000  0.0000 </r>
        <r>  0.0000  0.0022  0.0095  0.0018  0.0000  0.0000  0.0000  0.0000  0.0000 </r>
        <r>  0.0000  0.0003  0.0125  0.0095  0.0000  0.0000  0.0000  0.0000  0.0000 </r>
        <r>  0.0000  0.0374  0.0939  0.0604  0.0000  0.0000  0.0000  0.0000  0.0000 </r>
        <r>  0.0000  0.0226  0.0534  0.0708  0.0000  0.0000  0.0000  0.0000  0.0000 </r>
        <r>  0.0000  0.0340  0.0011  0.0016  0.0000  0.0000  0.0000  0.0000  0.0000 </r>
        <r>  0.0000  0.0252  0.0021  0.0006  0.0000  0.0000  0.0000  0.0000  0.0000 </r>
        <r>  0.0000  0.0000  0.0272  0.0355  0.0000  0.0000  0.0000  0.0000  0.0000 </r>
       </set>
       <set comment="band 11">
        <r>  0.0000  0.0832  0.0832  0.0832  0.0000  0.0000  0.0000  0.0000  0.0000 </r>
        <r>  0.0000  0.0000  0.0208  0.0208  0.0000  0.0000  0.0000  0.0000  0.0000 </r>
        <r>  0.0000  0.0832  0.0832  0.0832  0.0000  0.0000  0.0000  0.0000  0.0000 </r>
        <r>  0.0000  0.0208  0.0000  0.0208  0.0000  0.0000  0.0000  0.0000  0.0000 </r>
        <r>  0.0000  0.0208  0.0208  0.0000  0.0000  0.0000  0.0000  0.0000  0.0000 </r>
        <r>  0.0000  0.0208  0.0208  0.0000  0.0000  0.0000  0.0000  0.0000  0.0000 </r>
        <r>  0.0000  0.0208  0.0000  0.0208  0.0000  0.0000  0.0000  0.0000  0.0000 </r>
        <r>  0.0000  0.0000  0.0208  0.0208  0.0000  0.0000  0.0000  0.0000  0.0000 </r>
       </set>
       <set comment="band 12">
        <r>  0.0000  0.0000  0.0000  0.0000  0.0000  0.0000  0.0000  0.0000  0.0000 </r>
        <r>  0.0000  0.0000  0.0624  0.0624  0.0000  0.0000  0.0000  0.0000  0.0000 </r>
        <r>  0.0000  0.0000  0.0000  0.0000  0.0000  0.0000  0.0000  0.0000  0.0000 </r>
        <r>  0.0000  0.0624  0.0000  0.0624  0.0000  0.0000  0.0000  0.0000  0.0000 </r>
        <r>  0.0000  0.0624  0.0624  0.0000  0.0000  0.0000  0.0000  0.0000  0.0000 </r>
        <r>  0.0000  0.0624  0.0624  0.0000  0.0000  0.0000  0.0000  0.0000  0.0000 </r>
        <r>  0.0000  0.0624  0.0000  0.0624  0.0000  0.0000  0.0000  0.0000  0.0000 </r>
        <r>  0.0000  0.0000  0.0624  0.0624  0.0000  0.0000  0.0000  0.0000  0.0000 </r>
       </set>
       <set comment="band 13">
        <r>  0.0000  0.0001  0.0000  0.0001  0.0000  0.0000  0.0000  0.0000  0.0000 </r>
        <r>  0.0000  0.0222  0.0232  0.0007  0.0000  0.0000  0.0000  0.0000  0.0000 </r>
        <r>  0.0000  0.1094  0.0000  0.1093  0.0000  0.0000  0.0000  0.0000  0.0000 </r>
        <r>  0.0000  0.0318  0.0000  0.0318  0.0000  0.0000  0.0000  0.0000  0.0000 </r>
        <r>  0.0000  0.0007  0.0232  0.0222  0.0000  0.0000  0.0000  0.0000  0.0000 </r>
        <r>  0.0000  0.0999  0.0232  0.0372  0.0000  0.0000  0.0000  0.0000  0.0000 </r>
        <r>  0.0000  0.0268  0.0000  0.0267  0.0000  0.0000  0.0000  0.0000  0.0000 </r>
        <r>  0.0000  0.0372  0.0233  0.0998  0.0000  0.0000  0.0000  0.0000  0.0000 </r>
       </set>
       <set comment="band 14">
        <r>  0.0000  0.0000  0.0002  0.0000  0.0000  0.0000  0.0000  0.0000  0.0000 </r>
        <r>  0.0000  0.0074  0.0139  0.0364  0.0000  0.0000  0.0000  0.0000  0.0000 </r>
        <r>  0.0000  0.0364  0.1458  0.0365  0.0000  0.0000  0.0000  0.0000  0.0000 </r>
        <r>  0.0000  0.0054  0.0296  0.0053  0.0000  0.0000  0.0000  0.0000  0.0000 </r>
        <r>  0.0000  0.0364  0.0139  0.0074  0.0000  0.0000  0.0000  0.0000  0.0000 </r>
        <r>  0.0000  0.0000  0.0767  0.0124  0.0000  0.0000  0.0000  0.0000  0.0000 </r>
        <r>  0.0000  0.0731  0.0496  0.0732  0.0000  0.0000  0.0000  0.0000  0.0000 </r>
        <r>  0.0000  0.0124  0.0766  0.0000  0.0000  0.0000  0.0000  0.0000  0.0000 </r>
       </set>
       <set comment="band 15">
        <r>  0.0000  0.0011  0.0000  0.0011  0.0000  0.0000  0.0000  0.0000  0.0000 </r>
        <r>  0.0000  0.0821  0.0095  0.0660  0.0000  0.0000  0.0000  0.0000  0.0000 </r>
        <r>  0.0000  0.0043  0.0000  0.0043  0.0000  0.0000  0.0000  0.0000  0.0000 </r>
        <r>  0.0000  0.0265  0.0000  0.0256  0.0000  0.0000  0.0000  0.0000  0.0000 </r>
        <r>  0.0000  0.0662  0.0089  0.0809  0.0000  0.0000  0.0000  0.0000  0.0000 </r>
        <r>  0.0000  0.0249  0.0090  0.1470  0.0000  0.0000  0.0000  0.0000  0.0000 </r>
        <r>  0.0000  0.0040  0.0000  0.0037  0.0000  0.0000  0.0000  0.0000  0.0000 </r>
        <r>  0.0000  0.1492  0.0093  0.0249  0.0000  0.0000  0.0000  0.0000  0.0000 </r>
       </set>
       <set comment="band 16">
        <r>  0.0000  0.0004  0.0015  0.0004  0.0000  0.0000  0.0000  0.0000  0.0000 </r>
        <r>  0.0000  0.0266  0.0581  0.0016  0.0000  0.0000  0.0000  0.0000  0.0000 </r>
        <r>  0.0000  0.0014  0.0058  0.0015  0.0000  0.0000  0.0000  0.0000  0.0000 </r>
        <r>  0.0000  0.0411  0.1087  0.0419  0.0000  0.0000  0.0000  0.0000  0.0000 </r>
        <r>  0.0000  0.0013  0.0587  0.0278  0.0000  0.0000  0.0000  0.0000  0.0000 </r>
        <r>  0.0000  0.0004  0.0163  0.0505  0.0000  0.0000  0.0000  0.0000  0.0000 </r>
        <r>  0.0000  0.0213  0.1975  0.0215  0.0000  0.0000  0.0000  0.0000  0.0000 </r>
        <r>  0.0000  0.0483  0.0160  0.0003  0.0000  0.0000  0.0000  0.0000  0.0000 </r>
       </set>
       <set comment="band 17">
        <r>  0.0000  0.0096  0.0000  0.0096  0.0000  0.0000  0.0000  0.0000  0.0000 </r>
        <r>  0.0000  0.0223  0.0080  0.0655  0.0000  0.0000  0.0000  0.0000  0.0000 </r>
        <r>  0.0000  0.0059  0.0000  0.0059  0.0000  0.0000  0.0000  0.0000  0.0000 </r>
        <r>  0.0000  0.0276  0.0000  0.0277  0.0000  0.0000  0.0000  0.0000  0.0000 </r>
        <r>  0.0000  0.0654  0.0080  0.0223  0.0000  0.0000  0.0000  0.0000  0.0000 </r>
        <r>  0.0000  0.0066  0.0080  0.1052  0.0000  0.0000  0.0000  0.0000  0.0000 </r>
        <r>  0.0000  0.0001  0.0000  0.0001  0.0000  0.0000  0.0000  0.0000  0.0000 </r>
        <r>  0.0000  0.1051  0.0080  0.0066  0.0000  0.0000  0.0000  0.0000  0.0000 </r>
       </set>
       <set comment="band 18">
        <r>  0.0000  0.0032  0.0128  0.0032  0.0000  0.0000  0.0000  0.0000  0.0000 </r>
        <r>  0.0000  0.0074  0.0594  0.0020  0.0000  0.0000  0.0000  0.0000  0.0000 </r>
        <r>  0.0000  0.0020  0.0079  0.0020  0.0000  0.0000  0.0000  0.0000  0.0000 </r>
        <r>  0.0000  0.0398  0.0298  0.0397  0.0000  0.0000  0.0000  0.0000  0.0000 </r>
        <r>  0.0000  0.0020  0.0594  0.0074  0.0000  0.0000  0.0000  0.0000  0.0000 </r>
        <r>  0.0000  0.0032  0.0018  0.0350  0.0000  0.0000  0.0000  0.0000  0.0000 </r>
        <r>  0.0000  0.0097  0.1401  0.0097  0.0000  0.0000  0.0000  0.0000  0.0000 </r>
        <r>  0.0000  0.0351  0.0018  0.0032  0.0000  0.0000  0.0000  0.0000  0.0000 </r>
       </set>
       <set comment="band 19">
        <r>  0.0000  0.0575  0.0575  0.0575  0.0000  0.0000  0.0000  0.0000  0.0000 </r>
        <r>  0.0000  0.0000  0.0144  0.0144  0.0000  0.0000  0.0000  0.0000  0.0000 </r>
        <r>  0.0000  0.0575  0.0575  0.0575  0.0000  0.0000  0.0000  0.0000  0.0000 </r>
        <r>  0.0000  0.0144  0.0000  0.0144  0.0000  0.0000  0.0000  0.0000  0.0000 </r>
        <r>  0.0000  0.0144  0.0144  0.0000  0.0000  0.0000  0.0000  0.0000  0.0000 </r>
        <r>  0.0000  0.0144  0.0144  0.0000  0.0000  0.0000  0.0000  0.0000  0.0000 </r>
        <r>  0.0000  0.0144  0.0000  0.0144  0.0000  0.0000  0.0000  0.0000  0.0000 </r>
        <r>  0.0000  0.0000  0.0144  0.0144  0.0000  0.0000  0.0000  0.0000  0.0000 </r>
       </set>
       <set comment="band 20">
        <r>  0.0000  0.0224  0.0022  0.0107  0.0000  0.0000  0.0000  0.0000  0.0000 </r>
        <r>  0.0000  0.0966  0.0010  0.0004  0.0000  0.0000  0.0000  0.0000  0.0000 </r>
        <r>  0.0000  0.0413  0.0040  0.0198  0.0000  0.0000  0.0000  0.0000  0.0000 </r>
        <r>  0.0000  0.0120  0.0095  0.0128  0.0000  0.0000  0.0000  0.0000  0.0000 </r>
        <r>  0.0000  0.0068  0.0081  0.0464  0.0000  0.0000  0.0000  0.0000  0.0000 </r>
        <r>  0.0000  0.0733  0.0006  0.0008  0.0000  0.0000  0.0000  0.0000  0.0000 </r>
        <r>  0.0000  0.0592  0.0002  0.0173  0.0000  0.0000  0.0000  0.0000  0.0000 </r>
        <r>  0.0000  0.0018  0.0197  0.0505  0.0000  0.0000  0.0000  0.0000  0.0000 </r>
       </set>
       <set comment="band 21">
        <r>  0.0000  0.0012  0.0213  0.0128  0.0000  0.0000  0.0000  0.0000  0.0000 </r>
        <r>  0.0000  0.0050  0.0127  0.0133  0.0000  0.0000  0.0000  0.0000  0.0000 </r>
        <r>  0.0000  0.0021  0.0394  0.0236  0.0000  0.0000  0.0000  0.0000  0.0000 </r>
        <r>  0.0000  0.0017  0.0921  0.0009  0.0000  0.0000  0.0000  0.0000  0.0000 </r>
        <r>  0.0000  0.0069  0.0056  0.0553  0.0000  0.0000  0.0000  0.0000  0.0000 </r>
        <r>  0.0000  0.0002  0.0730  0.0010  0.0000  0.0000  0.0000  0.0000  0.0000 </r>
        <r>  0.0000  0.0143  0.0017  0.0563  0.0000  0.0000  0.0000  0.0000  0.0000 </r>
        <r>  0.0000  0.0001  0.0538  0.0230  0.0000  0.0000  0.0000  0.0000  0.0000 </r>
       </set>
       <set comment="band 22">
        <r>  0.0000  0.0592  0.0000  0.0588  0.0000  0.0000  0.0000  0.0000  0.0000 </r>
        <r>  0.0000  0.0309  0.0311  0.0180  0.0000  0.0000  0.0000  0.0000  0.0000 </r>
        <r>  0.0000  0.0479  0.0000  0.0476  0.0000  0.0000  0.0000  0.0000  0.0000 </r>
        <r>  0.0000  0.0017  0.0000  0.0018  0.0000  0.0000  0.0000  0.0000  0.0000 </r>
        <r>  0.0000  0.0179  0.0310  0.0307  0.0000  0.0000  0.0000  0.0000  0.0000 </r>
        <r>  0.0000  0.0119  0.0310  0.0228  0.0000  0.0000  0.0000  0.0000  0.0000 </r>
        <r>  0.0000  0.0044  0.0000  0.0045  0.0000  0.0000  0.0000  0.0000  0.0000 </r>
        <r>  0.0000  0.0229  0.0311  0.0121  0.0000  0.0000  0.0000  0.0000  0.0000 </r>
       </set>
       <set comment="band 23">
        <r>  0.0000  0.0195  0.0787  0.0198  0.0000  0.0000  0.0000  0.0000  0.0000 </r>
        <r>  0.0000  0.0102  0.0028  0.0158  0.0000  0.0000  0.0000  0.0000  0.0000 </r>
        <r>  0.0000  0.0158  0.0636  0.0161  0.0000  0.0000  0.0000  0.0000  0.0000 </r>
        <r>  0.0000  0.0321  0.0411  0.0320  0.0000  0.0000  0.0000  0.0000  0.0000 </r>
        <r>  0.0000  0.0160  0.0029  0.0104  0.0000  0.0000  0.0000  0.0000  0.0000 </r>
        <r>  0.0000  0.0197  0.0006  0.0077  0.0000  0.0000  0.0000  0.0000  0.0000 </r>
        <r>  0.0000  0.0273  0.0305  0.0272  0.0000  0.0000  0.0000  0.0000  0.0000 </r>
        <r>  0.0000  0.0076  0.0006  0.0196  0.0000  0.0000  0.0000  0.0000  0.0000 </r>
       </set>
       <set comment="band 24">
        <r>  0.0000  0.0000  0.0000  0.0000  0.0000  0.0000  0.0000  0.0000  0.0000 </r>
        <r>  0.0000  0.0000  0.0431  0.0431  0.0000  0.0000  0.0000  0.0000  0.0000 </r>
        <r>  0.0000  0.0000  0.0000  0.0000  0.0000  0.0000  0.0000  0.0000  0.0000 </r>
        <r>  0.0000  0.0431  0.0000  0.0431  0.0000  0.0000  0.0000  0.0000  0.0000 </r>
        <r>  0.0000  0.0431  0.0431  0.0000  0.0000  0.0000  0.0000  0.0000  0.0000 </r>
        <r>  0.0000  0.0431  0.0431  0.0000  0.0000  0.0000  0.0000  0.0000  0.0000 </r>
        <r>  0.0000  0.0431  0.0000  0.0431  0.0000  0.0000  0.0000  0.0000  0.0000 </r>
        <r>  0.0000  0.0000  0.0431  0.0431  0.0000  0.0000  0.0000  0.0000  0.0000 </r>
       </set>
       <set comment="band 25">
        <r>  0.2934  0.0000  0.0000  0.0000  0.0000  0.0000  0.0000  0.0000  0.0000 </r>
        <r>  0.0791  0.0009  0.0012  0.0012  0.0000  0.0000  0.0000  0.0000  0.0000 </r>
        <r>  0.0573  0.0012  0.0012  0.0012  0.0000  0.0000  0.0000  0.0000  0.0000 </r>
        <r>  0.0791  0.0012  0.0009  0.0012  0.0000  0.0000  0.0000  0.0000  0.0000 </r>
        <r>  0.0791  0.0012  0.0012  0.0009  0.0000  0.0000  0.0000  0.0000  0.0000 </r>
        <r>  0.0004  0.0000  0.0000  0.0045  0.0000  0.0000  0.0000  0.0000  0.0000 </r>
        <r>  0.0004  0.0000  0.0045  0.0000  0.0000  0.0000  0.0000  0.0000  0.0000 </r>
        <r>  0.0004  0.0045  0.0000  0.0000  0.0000  0.0000  0.0000  0.0000  0.0000 </r>
       </set>
       <set comment="band 26">
        <r>  0.0013  0.0015  0.0015  0.0015  0.0000  0.0000  0.0000  0.0000  0.0000 </r>
        <r>  0.0191  0.0037  0.0003  0.0003  0.0000  0.0000  0.0000  0.0000  0.0000 </r>
        <r>  0.2374  0.0003  0.0003  0.0003  0.0000  0.0000  0.0000  0.0000  0.0000 </r>
        <r>  0.0191  0.0003  0.0037  0.0003  0.0000  0.0000  0.0000  0.0000  0.0000 </r>
        <r>  0.0191  0.0003  0.0003  0.0037  0.0000  0.0000  0.0000  0.0000  0.0000 </r>
        <r>  0.0978  0.0015  0.0015  0.0000  0.0000  0.0000  0.0000  0.0000  0.0000 </r>
        <r>  0.0978  0.0015  0.0000  0.0015  0.0000  0.0000  0.0000  0.0000  0.0000 </r>
        <r>  0.0978  0.0000  0.0015  0.0015  0.0000  0.0000  0.0000  0.0000  0.0000 </r>
       </set>
       <set comment="band 27">
        <r>  0.0000  0.0008  0.0030  0.0008  0.0000  0.0000  0.0000  0.0000  0.0000 </r>
        <r>  0.0486  0.0000  0.0008  0.0030  0.0000  0.0000  0.0000  0.0000  0.0000 </r>
        <r>  0.0000  0.0008  0.0030  0.0008  0.0000  0.0000  0.0000  0.0000  0.0000 </r>
        <r>  0.1965  0.0008  0.0000  0.0008  0.0000  0.0000  0.0000  0.0000  0.0000 </r>
        <r>  0.0497  0.0030  0.0008  0.0000  0.0000  0.0000  0.0000  0.0000  0.0000 </r>
        <r>  0.0497  0.0030  0.0008  0.0000  0.0000  0.0000  0.0000  0.0000  0.0000 </r>
        <r>  0.1965  0.0008  0.0000  0.0008  0.0000  0.0000  0.0000  0.0000  0.0000 </r>
        <r>  0.0486  0.0000  0.0008  0.0030  0.0000  0.0000  0.0000  0.0000  0.0000 </r>
       </set>
       <set comment="band 28">
        <r>  0.0000  0.0023  0.0000  0.0023  0.0000  0.0000  0.0000  0.0000  0.0000 </r>
        <r>  0.1479  0.0000  0.0023  0.0000  0.0000  0.0000  0.0000  0.0000  0.0000 </r>
        <r>  0.0000  0.0023  0.0000  0.0023  0.0000  0.0000  0.0000  0.0000  0.0000 </r>
        <r>  0.0000  0.0023  0.0000  0.0023  0.0000  0.0000  0.0000  0.0000  0.0000 </r>
        <r>  0.1468  0.0000  0.0023  0.0000  0.0000  0.0000  0.0000  0.0000  0.0000 </r>
        <r>  0.1468  0.0000  0.0023  0.0000  0.0000  0.0000  0.0000  0.0000  0.0000 </r>
        <r>  0.0000  0.0023  0.0000  0.0023  0.0000  0.0000  0.0000  0.0000  0.0000 </r>
        <r>  0.1479  0.0000  0.0023  0.0000  0.0000  0.0000  0.0000  0.0000  0.0000 </r>
       </set>
      </set>
     </set>
    </set>
   </array>
  </projected>
 </calculation>
 <structure name="finalpos" >
  <crystal>
   <varray name="basis" >
    <v>       3.50296928      -0.00000000       0.00000000 </v>
    <v>       0.00000000       3.50296928      -0.00000000 </v>
    <v>      -0.00000000       0.00000000       3.50296928 </v>
   </varray>
   <i name="volume">     42.98421355 </i>
   <varray name="rec_basis" >
    <v>       0.28547210      -0.00000000       0.00000000 </v>
    <v>       0.00000000       0.28547210      -0.00000000 </v>
    <v>      -0.00000000       0.00000000       0.28547210 </v>
   </varray>
  </crystal>
  <varray name="positions" >
   <v>       0.75669600       0.75669600       0.75669600 </v>
   <v>       0.00669500       0.50669600       0.00669500 </v>
   <v>       0.50669600       0.50669600       0.50669600 </v>
   <v>       0.00669500       0.00669500       0.50669600 </v>
   <v>       0.50669600       0.00669500       0.00669500 </v>
   <v>       0.75669600       0.25669600       0.25669600 </v>
   <v>       0.25669600       0.25669600       0.75669600 </v>
   <v>       0.25669600       0.75669600       0.25669600 </v>
  </varray>
 </structure>
</modeling>
