mesh: [    48,    48,    48 ]
nqpoint: 2600   
reciprocal_lattice:
- [   0.28474720,   0.00000000,   0.00000000 ] # a*
- [   0.00000000,   0.28474720,   0.00000000 ] # b*
- [   0.00000000,   0.00000000,   0.28474720 ] # c*
natom:   8      
lattice:
- [     3.511887000000000,     0.000000000000000,     0.000000000000000 ] # a
- [     0.000000000000000,     3.511887000000000,     0.000000000000000 ] # b
- [     0.000000000000000,     0.000000000000000,     3.511887000000000 ] # c
points:
- symbol: C  # 1
  coordinates: [  0.756696000000000,  0.756696000000000,  0.756696000000000 ]
  mass: 12.010700
- symbol: C  # 2
  coordinates: [  0.006695000000000,  0.506696000000000,  0.006695000000000 ]
  mass: 12.010700
- symbol: C  # 3
  coordinates: [  0.506696000000000,  0.506696000000000,  0.506696000000000 ]
  mass: 12.010700
- symbol: C  # 4
  coordinates: [  0.006695000000000,  0.006695000000000,  0.506696000000000 ]
  mass: 12.010700
- symbol: C  # 5
  coordinates: [  0.506696000000000,  0.006695000000000,  0.006695000000000 ]
  mass: 12.010700
- symbol: C  # 6
  coordinates: [  0.756696000000000,  0.256696000000000,  0.256696000000000 ]
  mass: 12.010700
- symbol: C  # 7
  coordinates: [  0.256696000000000,  0.256696000000000,  0.756696000000000 ]
  mass: 12.010700
- symbol: C  # 8
  coordinates: [  0.256696000000000,  0.756696000000000,  0.256696000000000 ]
  mass: 12.010700

phonon:
- q-position: [    0.0104167,    0.0104167,    0.0104167 ]
  distance_from_gamma:  0.005137465
  weight: 8    
  band:
  - # 1
    frequency:     0.6087429100
  - # 2
    frequency:     0.6087429100
  - # 3
    frequency:     0.9745488765
  - # 4
    frequency:    23.6167344487
  - # 5
    frequency:    23.6167344487
  - # 6
    frequency:    23.6167344487
  - # 7
    frequency:    23.6317676143
  - # 8
    frequency:    23.6317676143
  - # 9
    frequency:    23.6317676143
  - # 10
    frequency:    34.3594831693
  - # 11
    frequency:    34.3594831693
  - # 12
    frequency:    34.3594831693
  - # 13
    frequency:    34.3678506816
  - # 14
    frequency:    34.3678506816
  - # 15
    frequency:    34.3678506816
  - # 16
    frequency:    37.2678913280
  - # 17
    frequency:    37.2678913280
  - # 18
    frequency:    37.2678913280
  - # 19
    frequency:    37.6187880937
  - # 20
    frequency:    37.6187880937
  - # 21
    frequency:    37.6187880937
  - # 22
    frequency:    40.8982728929
  - # 23
    frequency:    40.8982728929
  - # 24
    frequency:    40.9017683473

- q-position: [    0.0312500,    0.0104167,    0.0104167 ]
  distance_from_gamma:  0.009837496
  weight: 24   
  band:
  - # 1
    frequency:     1.1868352569
  - # 2
    frequency:     1.2240577079
  - # 3
    frequency:     1.8134194590
  - # 4
    frequency:    23.5882671432
  - # 5
    frequency:    23.6033036795
  - # 6
    frequency:    23.6281193141
  - # 7
    frequency:    23.6281193141
  - # 8
    frequency:    23.6731378291
  - # 9
    frequency:    23.6731378291
  - # 10
    frequency:    34.3373655532
  - # 11
    frequency:    34.3373655532
  - # 12
    frequency:    34.3624532599
  - # 13
    frequency:    34.3624532599
  - # 14
    frequency:    34.3769422719
  - # 15
    frequency:    34.3858186335
  - # 16
    frequency:    36.8990667706
  - # 17
    frequency:    37.2621530395
  - # 18
    frequency:    37.2621530395
  - # 19
    frequency:    37.6116723385
  - # 20
    frequency:    37.6116723385
  - # 21
    frequency:    37.9511946053
  - # 22
    frequency:    40.8866061490
  - # 23
    frequency:    40.8874061157
  - # 24
    frequency:    40.9048863219

- q-position: [    0.0520833,    0.0104167,    0.0104167 ]
  distance_from_gamma:  0.015412394
  weight: 24   
  band:
  - # 1
    frequency:     1.9063600668
  - # 2
    frequency:     1.9363483810
  - # 3
    frequency:     2.7935360122
  - # 4
    frequency:    23.5314590333
  - # 5
    frequency:    23.5465013583
  - # 6
    frequency:    23.6657739607
  - # 7
    frequency:    23.6657739607
  - # 8
    frequency:    23.7405380151
  - # 9
    frequency:    23.7405380151
  - # 10
    frequency:    34.3013821940
  - # 11
    frequency:    34.3013821940
  - # 12
    frequency:    34.3432015039
  - # 13
    frequency:    34.3432015039
  - # 14
    frequency:    34.4115187374
  - # 15
    frequency:    34.4215699670
  - # 16
    frequency:    36.5119077700
  - # 17
    frequency:    37.2508771420
  - # 18
    frequency:    37.2508771420
  - # 19
    frequency:    37.5976501518
  - # 20
    frequency:    37.5976501518
  - # 21
    frequency:    38.2657076113
  - # 22
    frequency:    40.8633019423
  - # 23
    frequency:    40.8641899794
  - # 24
    frequency:    40.9125747644

- q-position: [    0.0729167,    0.0104167,    0.0104167 ]
  distance_from_gamma:  0.021182310
  weight: 24   
  band:
  - # 1
    frequency:     2.6448094474
  - # 2
    frequency:     2.6674378623
  - # 3
    frequency:     3.8109402871
  - # 4
    frequency:    23.4465563074
  - # 5
    frequency:    23.4616050011
  - # 6
    frequency:    23.7293229422
  - # 7
    frequency:    23.7293229422
  - # 8
    frequency:    23.8334392122
  - # 9
    frequency:    23.8334392122
  - # 10
    frequency:    34.2513452221
  - # 11
    frequency:    34.2513452221
  - # 12
    frequency:    34.3098934826
  - # 13
    frequency:    34.3098934826
  - # 14
    frequency:    34.4623860925
  - # 15
    frequency:    34.4747432716
  - # 16
    frequency:    36.1067768680
  - # 17
    frequency:    37.2344541114
  - # 18
    frequency:    37.2344541114
  - # 19
    frequency:    37.5771317812
  - # 20
    frequency:    37.5771317812
  - # 21
    frequency:    38.5624956436
  - # 22
    frequency:    40.8284189211
  - # 23
    frequency:    40.8293302583
  - # 24
    frequency:    40.9240683343

- q-position: [    0.0937500,    0.0104167,    0.0104167 ]
  distance_from_gamma:  0.027022609
  weight: 24   
  band:
  - # 1
    frequency:     3.3860812752
  - # 2
    frequency:     3.4033226094
  - # 3
    frequency:     4.8409614386
  - # 4
    frequency:    23.3339121249
  - # 5
    frequency:    23.3489651683
  - # 6
    frequency:    23.8181674773
  - # 7
    frequency:    23.8181674773
  - # 8
    frequency:    23.9510986448
  - # 9
    frequency:    23.9510986448
  - # 10
    frequency:    34.1870046559
  - # 11
    frequency:    34.1870046559
  - # 12
    frequency:    34.2622449758
  - # 13
    frequency:    34.2622449758
  - # 14
    frequency:    34.5275931744
  - # 15
    frequency:    34.5448148236
  - # 16
    frequency:    35.6849507316
  - # 17
    frequency:    37.2134428760
  - # 18
    frequency:    37.2134428760
  - # 19
    frequency:    37.5507115593
  - # 20
    frequency:    37.5507115593
  - # 21
    frequency:    38.8418088847
  - # 22
    frequency:    40.7820452724
  - # 23
    frequency:    40.7829652184
  - # 24
    frequency:    40.9391409303

- q-position: [    0.1145833,    0.0104167,    0.0104167 ]
  distance_from_gamma:  0.032895826
  weight: 24   
  band:
  - # 1
    frequency:     4.1261131465
  - # 2
    frequency:     4.1393543402
  - # 3
    frequency:     5.8745490519
  - # 4
    frequency:    23.1939696182
  - # 5
    frequency:    23.2090217998
  - # 6
    frequency:    23.9314920508
  - # 7
    frequency:    23.9314920508
  - # 8
    frequency:    24.0925696011
  - # 9
    frequency:    24.0925696011
  - # 10
    frequency:    34.1080833659
  - # 11
    frequency:    34.1080833659
  - # 12
    frequency:    34.1999142620
  - # 13
    frequency:    34.1999142620
  - # 14
    frequency:    34.6000572752
  - # 15
    frequency:    34.6311182442
  - # 16
    frequency:    35.2526999740
  - # 17
    frequency:    37.1885399995
  - # 18
    frequency:    37.1885399995
  - # 19
    frequency:    37.5191427200
  - # 20
    frequency:    37.5191427200
  - # 21
    frequency:    39.1039263429
  - # 22
    frequency:    40.7242989730
  - # 23
    frequency:    40.7252222447
  - # 24
    frequency:    40.9575508497

- q-position: [    0.1354167,    0.0104167,    0.0104167 ]
  distance_from_gamma:  0.038787009
  weight: 24   
  band:
  - # 1
    frequency:     4.8631186016
  - # 2
    frequency:     4.8732560476
  - # 3
    frequency:     6.9073235594
  - # 4
    frequency:    23.0272426076
  - # 5
    frequency:    23.0422851192
  - # 6
    frequency:    24.0682726359
  - # 7
    frequency:    24.0682726359
  - # 8
    frequency:    24.2567125839
  - # 9
    frequency:    24.2567125839
  - # 10
    frequency:    34.0143187318
  - # 11
    frequency:    34.0143187318
  - # 12
    frequency:    34.1225379537
  - # 13
    frequency:    34.1225379537
  - # 14
    frequency:    34.6057471202
  - # 15
    frequency:    34.7328672317
  - # 16
    frequency:    34.8831360262
  - # 17
    frequency:    37.1605411633
  - # 18
    frequency:    37.1605411633
  - # 19
    frequency:    37.4833043939
  - # 20
    frequency:    37.4833043939
  - # 21
    frequency:    39.3491493929
  - # 22
    frequency:    40.6553281145
  - # 23
    frequency:    40.6562522255
  - # 24
    frequency:    40.9790087338

- q-position: [    0.1562500,    0.0104167,    0.0104167 ]
  distance_from_gamma:  0.044689054
  weight: 24   
  band:
  - # 1
    frequency:     5.5959449157
  - # 2
    frequency:     5.6035724681
  - # 3
    frequency:     7.9366711547
  - # 4
    frequency:    22.8342960237
  - # 5
    frequency:    22.8493162499
  - # 6
    frequency:    24.2272854825
  - # 7
    frequency:    24.2272854825
  - # 8
    frequency:    24.4422066061
  - # 9
    frequency:    24.4422066061
  - # 10
    frequency:    33.9055102867
  - # 11
    frequency:    33.9055102867
  - # 12
    frequency:    34.0297755756
  - # 13
    frequency:    34.0297755756
  - # 14
    frequency:    34.2396370216
  - # 15
    frequency:    34.8491792913
  - # 16
    frequency:    34.8802837176
  - # 17
    frequency:    37.1302976355
  - # 18
    frequency:    37.1302976355
  - # 19
    frequency:    37.4441620702
  - # 20
    frequency:    37.4441620702
  - # 21
    frequency:    39.5777996021
  - # 22
    frequency:    40.5753112948
  - # 23
    frequency:    40.5762348444
  - # 24
    frequency:    41.0031751063

- q-position: [    0.1770833,    0.0104167,    0.0104167 ]
  distance_from_gamma:  0.050598160
  weight: 24   
  band:
  - # 1
    frequency:     6.3236682711
  - # 2
    frequency:     6.3291952675
  - # 3
    frequency:     8.9607650589
  - # 4
    frequency:    22.6157277295
  - # 5
    frequency:    22.6307092164
  - # 6
    frequency:    24.4071151057
  - # 7
    frequency:    24.4071151057
  - # 8
    frequency:    24.6475592707
  - # 9
    frequency:    24.6475592707
  - # 10
    frequency:    33.7503865089
  - # 11
    frequency:    33.7815710221
  - # 12
    frequency:    33.7815710221
  - # 13
    frequency:    33.9213608126
  - # 14
    frequency:    33.9213608126
  - # 15
    frequency:    34.9790986769
  - # 16
    frequency:    34.9944264977
  - # 17
    frequency:    37.0986712682
  - # 18
    frequency:    37.0986712682
  - # 19
    frequency:    37.4027238038
  - # 20
    frequency:    37.4027238038
  - # 21
    frequency:    39.7902178254
  - # 22
    frequency:    40.4844580640
  - # 23
    frequency:    40.4853801734
  - # 24
    frequency:    41.0296620619

- q-position: [    0.1979167,    0.0104167,    0.0104167 ]
  distance_from_gamma:  0.056512113
  weight: 24   
  band:
  - # 1
    frequency:     7.0454648492
  - # 2
    frequency:     7.0491846397
  - # 3
    frequency:     9.9781772886
  - # 4
    frequency:    22.3721529388
  - # 5
    frequency:    22.3870755168
  - # 6
    frequency:    24.6061597568
  - # 7
    frequency:    24.6061597568
  - # 8
    frequency:    24.8711139792
  - # 9
    frequency:    24.8711139792
  - # 10
    frequency:    33.2309649661
  - # 11
    frequency:    33.6425798513
  - # 12
    frequency:    33.6425798513
  - # 13
    frequency:    33.7971567269
  - # 14
    frequency:    33.7971567269
  - # 15
    frequency:    35.1216172428
  - # 16
    frequency:    35.1315041468
  - # 17
    frequency:    37.0664920290
  - # 18
    frequency:    37.0664920290
  - # 19
    frequency:    37.3599954183
  - # 20
    frequency:    37.3599954183
  - # 21
    frequency:    39.9867638714
  - # 22
    frequency:    40.3830094153
  - # 23
    frequency:    40.3839295208
  - # 24
    frequency:    41.0580360906

- q-position: [    0.2187500,    0.0104167,    0.0104167 ]
  distance_from_gamma:  0.062429534
  weight: 24   
  band:
  - # 1
    frequency:     7.7605618166
  - # 2
    frequency:     7.7626922006
  - # 3
    frequency:    10.9877052491
  - # 4
    frequency:    22.1041918850
  - # 5
    frequency:    22.1190319145
  - # 6
    frequency:    24.8226322174
  - # 7
    frequency:    24.8226322174
  - # 8
    frequency:    25.1110521920
  - # 9
    frequency:    25.1110521920
  - # 10
    frequency:    32.6889327276
  - # 11
    frequency:    33.4888333523
  - # 12
    frequency:    33.4888333523
  - # 13
    frequency:    33.6572121228
  - # 14
    frequency:    33.6572121228
  - # 15
    frequency:    35.2756924402
  - # 16
    frequency:    35.2828510093
  - # 17
    frequency:    37.0345219109
  - # 18
    frequency:    37.0345219109
  - # 19
    frequency:    37.3169385743
  - # 20
    frequency:    37.3169385743
  - # 21
    frequency:    40.1678164698
  - # 22
    frequency:    40.2712383054
  - # 23
    frequency:    40.2721560897
  - # 24
    frequency:    41.0878214195

- q-position: [    0.2395833,    0.0104167,    0.0104167 ]
  distance_from_gamma:  0.068349524
  weight: 24   
  band:
  - # 1
    frequency:     8.4682162052
  - # 2
    frequency:     8.4689241228
  - # 3
    frequency:    11.9882871043
  - # 4
    frequency:    21.8124609027
  - # 5
    frequency:    21.8271916072
  - # 6
    frequency:    25.0545531056
  - # 7
    frequency:    25.0545531056
  - # 8
    frequency:    25.3653880292
  - # 9
    frequency:    25.3653880292
  - # 10
    frequency:    32.1258701052
  - # 11
    frequency:    33.3208964807
  - # 12
    frequency:    33.3208964807
  - # 13
    frequency:    33.5018170383
  - # 14
    frequency:    33.5018170383
  - # 15
    frequency:    35.4402621827
  - # 16
    frequency:    35.4457831084
  - # 17
    frequency:    37.0034281666
  - # 18
    frequency:    37.0034281666
  - # 19
    frequency:    37.2744355307
  - # 20
    frequency:    37.2744355307
  - # 21
    frequency:    40.1494501915
  - # 22
    frequency:    40.1503655789
  - # 23
    frequency:    40.3337734055
  - # 24
    frequency:    41.1185036698

- q-position: [    0.2604167,    0.0104167,    0.0104167 ]
  distance_from_gamma:  0.074271467
  weight: 24   
  band:
  - # 1
    frequency:     9.1671221565
  - # 2
    frequency:     9.1677049903
  - # 3
    frequency:    12.9789576192
  - # 4
    frequency:    21.4975667124
  - # 5
    frequency:    21.5121585664
  - # 6
    frequency:    25.2997329008
  - # 7
    frequency:    25.2997329008
  - # 8
    frequency:    25.6319514759
  - # 9
    frequency:    25.6319514759
  - # 10
    frequency:    31.5423028874
  - # 11
    frequency:    33.1396544449
  - # 12
    frequency:    33.1396544449
  - # 13
    frequency:    33.3315573132
  - # 14
    frequency:    33.3315573132
  - # 15
    frequency:    35.6142566770
  - # 16
    frequency:    35.6186857447
  - # 17
    frequency:    36.9737673735
  - # 18
    frequency:    36.9737673735
  - # 19
    frequency:    37.2332636072
  - # 20
    frequency:    37.2332636072
  - # 21
    frequency:    40.0179835672
  - # 22
    frequency:    40.0188967551
  - # 23
    frequency:    40.4850517350
  - # 24
    frequency:    41.1495337304

- q-position: [    0.2812500,    0.0104167,    0.0104167 ]
  distance_from_gamma:  0.080194932
  weight: 24   
  band:
  - # 1
    frequency:     9.8565533221
  - # 2
    frequency:     9.8583201759
  - # 3
    frequency:    13.9588239346
  - # 4
    frequency:    21.1601034590
  - # 5
    frequency:    21.1745246010
  - # 6
    frequency:    25.5557373520
  - # 7
    frequency:    25.5557373520
  - # 8
    frequency:    25.9083547945
  - # 9
    frequency:    25.9083547945
  - # 10
    frequency:    30.9384685329
  - # 11
    frequency:    32.9463712583
  - # 12
    frequency:    32.9463712583
  - # 13
    frequency:    33.1473713601
  - # 14
    frequency:    33.1473713601
  - # 15
    frequency:    35.7966075605
  - # 16
    frequency:    35.8002577173
  - # 17
    frequency:    36.9459802069
  - # 18
    frequency:    36.9459802069
  - # 19
    frequency:    37.1940809064
  - # 20
    frequency:    37.1940809064
  - # 21
    frequency:    39.8772104818
  - # 22
    frequency:    39.8781219970
  - # 23
    frequency:    40.6220880299
  - # 24
    frequency:    41.1803317728

- q-position: [    0.3020833,    0.0104167,    0.0104167 ]
  distance_from_gamma:  0.086119603
  weight: 24   
  band:
  - # 1
    frequency:    10.5365041068
  - # 2
    frequency:    10.5393663143
  - # 3
    frequency:    14.9270517803
  - # 4
    frequency:    20.8006519454
  - # 5
    frequency:    20.8148685916
  - # 6
    frequency:    25.8198285538
  - # 7
    frequency:    25.8198285538
  - # 8
    frequency:    26.1919340550
  - # 9
    frequency:    26.1919340550
  - # 10
    frequency:    30.3145123478
  - # 11
    frequency:    32.7427645481
  - # 12
    frequency:    32.7427645481
  - # 13
    frequency:    32.9506166051
  - # 14
    frequency:    32.9506166051
  - # 15
    frequency:    35.9862548022
  - # 16
    frequency:    35.9893233362
  - # 17
    frequency:    36.9203954032
  - # 18
    frequency:    36.9203954032
  - # 19
    frequency:    37.1574231483
  - # 20
    frequency:    37.1574231483
  - # 21
    frequency:    39.7275370253
  - # 22
    frequency:    39.7284477997
  - # 23
    frequency:    40.7453386034
  - # 24
    frequency:    41.2102913469

- q-position: [    0.3229167,    0.0104167,    0.0104167 ]
  distance_from_gamma:  0.092045249
  weight: 24   
  band:
  - # 1
    frequency:    11.2062771331
  - # 2
    frequency:    11.2101592890
  - # 3
    frequency:    15.8828574226
  - # 4
    frequency:    20.4197804836
  - # 5
    frequency:    20.4337573221
  - # 6
    frequency:    26.0888703822
  - # 7
    frequency:    26.0888703822
  - # 8
    frequency:    26.4796534075
  - # 9
    frequency:    26.4796534075
  - # 10
    frequency:    29.6705541098
  - # 11
    frequency:    32.5311110754
  - # 12
    frequency:    32.5311110754
  - # 13
    frequency:    32.7431586381
  - # 14
    frequency:    32.7431586381
  - # 15
    frequency:    36.1821518514
  - # 16
    frequency:    36.1847722400
  - # 17
    frequency:    36.8972405432
  - # 18
    frequency:    36.8972405432
  - # 19
    frequency:    37.1237099568
  - # 20
    frequency:    37.1237099568
  - # 21
    frequency:    39.5694037621
  - # 22
    frequency:    39.5703152251
  - # 23
    frequency:    40.8552796828
  - # 24
    frequency:    41.2387835006

- q-position: [    0.3437500,    0.0104167,    0.0104167 ]
  distance_from_gamma:  0.097971692
  weight: 24   
  band:
  - # 1
    frequency:    11.8651892411
  - # 2
    frequency:    11.8700257819
  - # 3
    frequency:    16.8255028815
  - # 4
    frequency:    20.0180468364
  - # 5
    frequency:    20.0317473872
  - # 6
    frequency:    26.3591819566
  - # 7
    frequency:    26.3591819566
  - # 8
    frequency:    26.7679532047
  - # 9
    frequency:    26.7679532047
  - # 10
    frequency:    29.0067155002
  - # 11
    frequency:    32.3144031468
  - # 12
    frequency:    32.3144031468
  - # 13
    frequency:    32.5275033382
  - # 14
    frequency:    32.5275033382
  - # 15
    frequency:    36.3832694820
  - # 16
    frequency:    36.3855370959
  - # 17
    frequency:    36.8766570482
  - # 18
    frequency:    36.8766570482
  - # 19
    frequency:    37.0932579585
  - # 20
    frequency:    37.0932579585
  - # 21
    frequency:    39.4032860939
  - # 22
    frequency:    39.4042002833
  - # 23
    frequency:    40.9524074978
  - # 24
    frequency:    41.2651608703

- q-position: [    0.3645833,    0.0104167,    0.0104167 ]
  distance_from_gamma:  0.103898796
  weight: 24   
  band:
  - # 1
    frequency:    12.5125704013
  - # 2
    frequency:    12.5183031189
  - # 3
    frequency:    17.7542930560
  - # 4
    frequency:    19.5960008005
  - # 5
    frequency:    19.6093877314
  - # 6
    frequency:    26.6263169434
  - # 7
    frequency:    26.6263169434
  - # 8
    frequency:    27.0525141565
  - # 9
    frequency:    27.0525141565
  - # 10
    frequency:    28.3231332207
  - # 11
    frequency:    32.0965816426
  - # 12
    frequency:    32.0965816426
  - # 13
    frequency:    32.3070016717
  - # 14
    frequency:    32.3070016717
  - # 15
    frequency:    36.5885987080
  - # 16
    frequency:    36.5905846644
  - # 17
    frequency:    36.8587170609
  - # 18
    frequency:    36.8587170609
  - # 19
    frequency:    37.0662977163
  - # 20
    frequency:    37.0662977163
  - # 21
    frequency:    39.2296945391
  - # 22
    frequency:    39.2306142272
  - # 23
    frequency:    41.0372382538
  - # 24
    frequency:    41.2887616961

- q-position: [    0.3854167,    0.0104167,    0.0104167 ]
  distance_from_gamma:  0.109826454
  weight: 24   
  band:
  - # 1
    frequency:    13.1477631181
  - # 2
    frequency:    13.1543393166
  - # 3
    frequency:    18.6685739768
  - # 4
    frequency:    19.1541870814
  - # 5
    frequency:    19.1672224707
  - # 6
    frequency:    26.8847436047
  - # 7
    frequency:    26.8847436047
  - # 8
    frequency:    27.3279009323
  - # 9
    frequency:    27.3279009323
  - # 10
    frequency:    27.6199661153
  - # 11
    frequency:    31.8828713050
  - # 12
    frequency:    31.8828713050
  - # 13
    frequency:    32.0861679332
  - # 14
    frequency:    32.0861679332
  - # 15
    frequency:    36.7971530668
  - # 16
    frequency:    36.7989121943
  - # 17
    frequency:    36.8434404614
  - # 18
    frequency:    36.8434404614
  - # 19
    frequency:    37.0429917509
  - # 20
    frequency:    37.0429917509
  - # 21
    frequency:    39.0491749087
  - # 22
    frequency:    39.0501037481
  - # 23
    frequency:    41.1103079656
  - # 24
    frequency:    41.3089137163

- q-position: [    0.4062500,    0.0104167,    0.0104167 ]
  distance_from_gamma:  0.115754580
  weight: 24   
  band:
  - # 1
    frequency:    13.7701221138
  - # 2
    frequency:    13.7774932204
  - # 3
    frequency:    18.6931481964
  - # 4
    frequency:    18.7057937396
  - # 5
    frequency:    19.5677317223
  - # 6
    frequency:    26.8973994941
  - # 7
    frequency:    27.1274137143
  - # 8
    frequency:    27.1274137143
  - # 9
    frequency:    27.5870525120
  - # 10
    frequency:    27.5870525120
  - # 11
    frequency:    31.6802191010
  - # 12
    frequency:    31.6802191010
  - # 13
    frequency:    31.8711587763
  - # 14
    frequency:    31.8711587763
  - # 15
    frequency:    36.8308109056
  - # 16
    frequency:    36.8308109056
  - # 17
    frequency:    37.0079704853
  - # 18
    frequency:    37.0095461486
  - # 19
    frequency:    37.0234514780
  - # 20
    frequency:    37.0234514780
  - # 21
    frequency:    38.8623083684
  - # 22
    frequency:    38.8632510572
  - # 23
    frequency:    41.1721721249
  - # 24
    frequency:    41.3249379047

- q-position: [    0.4270833,    0.0104167,    0.0104167 ]
  distance_from_gamma:  0.121683107
  weight: 24   
  band:
  - # 1
    frequency:    14.3790141551
  - # 2
    frequency:    14.3871346601
  - # 3
    frequency:    18.2134272266
  - # 4
    frequency:    18.2256443830
  - # 5
    frequency:    20.4511917104
  - # 6
    frequency:    26.1556480255
  - # 7
    frequency:    27.3452739691
  - # 8
    frequency:    27.3452739691
  - # 9
    frequency:    27.8206442831
  - # 10
    frequency:    27.8206442831
  - # 11
    frequency:    31.4977330172
  - # 12
    frequency:    31.4977330172
  - # 13
    frequency:    31.6704394153
  - # 14
    frequency:    31.6704394153
  - # 15
    frequency:    36.8207903084
  - # 16
    frequency:    36.8207903084
  - # 17
    frequency:    37.0077516246
  - # 18
    frequency:    37.0077516246
  - # 19
    frequency:    37.2201148783
  - # 20
    frequency:    37.2215420332
  - # 21
    frequency:    38.6697113732
  - # 22
    frequency:    38.6706738432
  - # 23
    frequency:    41.2234051790
  - # 24
    frequency:    41.3361520160

- q-position: [    0.4479167,    0.0104167,    0.0104167 ]
  distance_from_gamma:  0.127611979
  weight: 24   
  band:
  - # 1
    frequency:    14.9738179234
  - # 2
    frequency:    14.9826445629
  - # 3
    frequency:    17.7155703052
  - # 4
    frequency:    17.7273203823
  - # 5
    frequency:    21.3184181854
  - # 6
    frequency:    25.3949578252
  - # 7
    frequency:    27.5269644419
  - # 8
    frequency:    27.5269644419
  - # 9
    frequency:    28.0165585486
  - # 10
    frequency:    28.0165585486
  - # 11
    frequency:    31.3467207541
  - # 12
    frequency:    31.3467207541
  - # 13
    frequency:    31.4955576386
  - # 14
    frequency:    31.4955576386
  - # 15
    frequency:    36.8133315128
  - # 16
    frequency:    36.8133315128
  - # 17
    frequency:    36.9959414078
  - # 18
    frequency:    36.9959414078
  - # 19
    frequency:    37.4326775696
  - # 20
    frequency:    37.4339847767
  - # 21
    frequency:    38.4720354665
  - # 22
    frequency:    38.4730250984
  - # 23
    frequency:    41.2645998008
  - # 24
    frequency:    41.3418739133

- q-position: [    0.4687500,    0.0104167,    0.0104167 ]
  distance_from_gamma:  0.133541149
  weight: 24   
  band:
  - # 1
    frequency:    15.5539238533
  - # 2
    frequency:    15.5634149770
  - # 3
    frequency:    17.2001287780
  - # 4
    frequency:    17.2113729529
  - # 5
    frequency:    22.1689137838
  - # 6
    frequency:    24.6156080568
  - # 7
    frequency:    27.6593229685
  - # 8
    frequency:    27.6593229685
  - # 9
    frequency:    28.1601929740
  - # 10
    frequency:    28.1601929740
  - # 11
    frequency:    31.2393289862
  - # 12
    frequency:    31.2393289862
  - # 13
    frequency:    31.3616771169
  - # 14
    frequency:    31.3616771169
  - # 15
    frequency:    36.8083889910
  - # 16
    frequency:    36.8083889910
  - # 17
    frequency:    36.9880523973
  - # 18
    frequency:    36.9880523973
  - # 19
    frequency:    37.6447785893
  - # 20
    frequency:    37.6459893917
  - # 21
    frequency:    38.2699669387
  - # 22
    frequency:    38.2709928112
  - # 23
    frequency:    41.2963659298
  - # 24
    frequency:    41.3414246541

- q-position: [    0.4895833,    0.0104167,    0.0104167 ]
  distance_from_gamma:  0.139470579
  weight: 24   
  band:
  - # 1
    frequency:    16.1187338762
  - # 2
    frequency:    16.1288489598
  - # 3
    frequency:    16.6676610151
  - # 4
    frequency:    16.6783602889
  - # 5
    frequency:    23.0022191005
  - # 6
    frequency:    23.8179122033
  - # 7
    frequency:    27.7296124118
  - # 8
    frequency:    27.7296124118
  - # 9
    frequency:    28.2368767265
  - # 10
    frequency:    28.2368767265
  - # 11
    frequency:    31.1845432904
  - # 12
    frequency:    31.1845432904
  - # 13
    frequency:    31.2869233148
  - # 14
    frequency:    31.2869233148
  - # 15
    frequency:    36.8059273559
  - # 16
    frequency:    36.8059273559
  - # 17
    frequency:    36.9841034596
  - # 18
    frequency:    36.9841034596
  - # 19
    frequency:    37.8555678694
  - # 20
    frequency:    37.8567017703
  - # 21
    frequency:    38.0642263427
  - # 22
    frequency:    38.0652995245
  - # 23
    frequency:    41.3193295680
  - # 24
    frequency:    41.3341313183

- q-position: [    0.0312500,    0.0312500,    0.0104167 ]
  distance_from_gamma:  0.012929003
  weight: 24   
  band:
  - # 1
    frequency:     1.4838257803
  - # 2
    frequency:     1.6130926136
  - # 3
    frequency:     2.4260739066
  - # 4
    frequency:    23.5995809988
  - # 5
    frequency:    23.5995809988
  - # 6
    frequency:    23.6093934833
  - # 7
    frequency:    23.6446325929
  - # 8
    frequency:    23.6446325929
  - # 9
    frequency:    23.7441902429
  - # 10
    frequency:    34.2994513532
  - # 11
    frequency:    34.3527587333
  - # 12
    frequency:    34.3527587333
  - # 13
    frequency:    34.3737937411
  - # 14
    frequency:    34.3805814865
  - # 15
    frequency:    34.3805814865
  - # 16
    frequency:    36.8987020094
  - # 17
    frequency:    36.8987020094
  - # 18
    frequency:    37.2480011510
  - # 19
    frequency:    37.6121080551
  - # 20
    frequency:    37.9408085705
  - # 21
    frequency:    37.9408085705
  - # 22
    frequency:    40.8752957577
  - # 23
    frequency:    40.8812092834
  - # 24
    frequency:    40.9030223524

- q-position: [    0.0520833,    0.0312500,    0.0104167 ]
  distance_from_gamma:  0.017547783
  weight: 48   
  band:
  - # 1
    frequency:     2.0489782070
  - # 2
    frequency:     2.2031202452
  - # 3
    frequency:     3.2571846122
  - # 4
    frequency:    23.5426335704
  - # 5
    frequency:    23.5877490589
  - # 6
    frequency:    23.6169771853
  - # 7
    frequency:    23.6370676408
  - # 8
    frequency:    23.7119746820
  - # 9
    frequency:    23.8408128621
  - # 10
    frequency:    34.2486751879
  - # 11
    frequency:    34.3119617258
  - # 12
    frequency:    34.3624797335
  - # 13
    frequency:    34.3711365793
  - # 14
    frequency:    34.3826575368
  - # 15
    frequency:    34.4166101024
  - # 16
    frequency:    36.5184746345
  - # 17
    frequency:    36.8980138470
  - # 18
    frequency:    37.2211269825
  - # 19
    frequency:    37.6120397385
  - # 20
    frequency:    37.9202585489
  - # 21
    frequency:    38.2531823802
  - # 22
    frequency:    40.8521971538
  - # 23
    frequency:    40.8606132060
  - # 24
    frequency:    40.9079736891

- q-position: [    0.0729167,    0.0312500,    0.0104167 ]
  distance_from_gamma:  0.022783175
  weight: 48   
  band: