# Thermal properties / unit cell (natom)

unit:
  temperature:   K
  free_energy:   kJ/mol
  entropy:       J/K/mol
  heat_capacity: J/K/mol

natom: 8    
cutoff_frequency: 0.00000
num_modes: 2654208
num_integrated_modes: 2654208

zero_point_energy:     145.4954401

thermal_properties:
- temperature:         0.0000000
  free_energy:       145.4954401
  entropy:             0.0000000
  heat_capacity:       0.0000000
  energy:            145.4954401

- temperature:        10.0000000
  free_energy:       145.4954392
  entropy:             0.0004064
  heat_capacity:       0.0013542
  energy:            145.4954433

- temperature:        20.0000000
  free_energy:       145.4954227
  entropy:             0.0035889
  heat_capacity:       0.0109465
  energy:            145.4954944

- temperature:        30.0000000
  free_energy:       145.4953490
  entropy:             0.0123068
  heat_capacity:       0.0373643
  energy:            145.4957182

- temperature:        40.0000000
  free_energy:       145.4951482
  entropy:             0.0295239
  heat_capacity:       0.0900724
  energy:            145.4963292

- temperature:        50.0000000
  free_energy:       145.4947194
  entropy:             0.0584938
  heat_capacity:       0.1802182
  energy:            145.4976441

- temperature:        60.0000000
  free_energy:       145.4939267
  entropy:             0.1029849
  heat_capacity:       0.3222160
  energy:            145.5001058

- temperature:        70.0000000
  free_energy:       145.4925927
  entropy:             0.1676122
  heat_capacity:       0.5355427
  energy:            145.5043256

- temperature:        80.0000000
  free_energy:       145.4904884
  entropy:             0.2580957
  heat_capacity:       0.8447787
  energy:            145.5111361

- temperature:        90.0000000
  free_energy:       145.4873221
  entropy:             0.3812124
  heat_capacity:       1.2769855
  energy:            145.5216312

- temperature:       100.0000000
  free_energy:       145.4827306
  entropy:             0.5444105
  heat_capacity:       1.8577793
  energy:            145.5371716

- temperature:       110.0000000
  free_energy:       145.4762750
  entropy:             0.7552489
  heat_capacity:       2.6080375
  energy:            145.5593524

- temperature:       120.0000000
  free_energy:       145.4674429
  entropy:             1.0208613
  heat_capacity:       3.5422474
  energy:            145.5899463

- temperature:       130.0000000
  free_energy:       145.4556540
  entropy:             1.3475682
  heat_capacity:       4.6684348
  energy:            145.6308379

- temperature:       140.0000000
  free_energy:       145.4402701
  entropy:             1.7406677
  heat_capacity:       5.9890714
  energy:            145.6839636

- temperature:       150.0000000
  free_energy:       145.4206052
  entropy:             2.2043770
  heat_capacity:       7.5023308
  energy:            145.7512618

- temperature:       160.0000000
  free_energy:       145.3959365
  entropy:             2.7418720
  heat_capacity:       9.2032640
  energy:            145.8346360

- temperature:       170.0000000
  free_energy:       145.3655143
  entropy:             3.3553800
  heat_capacity:      11.0847047
  energy:            145.9359289

- temperature:       180.0000000
  free_energy:       145.3285708
  entropy:             4.0462883
  heat_capacity:      13.1378834
  energy:            146.0569027

- temperature:       190.0000000
  free_energy:       145.2843283
  entropy:             4.8152503
  heat_capacity:      15.3528130
  energy:            146.1992258

- temperature:       200.0000000
  free_energy:       145.2320055
  entropy:             5.6622808
  heat_capacity:      17.7185297
  energy:            146.3644617

- temperature:       210.0000000
  free_energy:       145.1708242
  entropy:             6.5868367
  heat_capacity:      20.2232639
  energy:            146.5540599

- temperature:       220.0000000
  free_energy:       145.1000138
  entropy:             7.5878874
  heat_capacity:      22.8545900
  energy:            146.7693490

- temperature:       230.0000000
  free_energy:       145.0188163
  entropy:             8.6639754
  heat_capacity:      25.5995815
  energy:            147.0115306

- temperature:       240.0000000
  free_energy:       144.9264902
  entropy:             9.8132714
  heat_capacity:      28.4449794
  energy:            147.2816753

- temperature:       250.0000000
  free_energy:       144.8223140
  entropy:            11.0336249
  heat_capacity:      31.3773719
  energy:            147.5807202

- temperature:       260.0000000
  free_energy:       144.7055889
  entropy:            12.3226124
  heat_capacity:      34.3833774
  energy:            147.9094681

- temperature:       270.0000000
  free_energy:       144.5756417
  entropy:            13.6775830
  heat_capacity:      37.4498202
  energy:            148.2685892

- temperature:       280.0000000
  free_energy:       144.4318267
  entropy:            15.0957018
  heat_capacity:      40.5638929
  energy:            148.6586232

- temperature:       290.0000000
  free_energy:       144.2735271
  entropy:            16.5739917
  heat_capacity:      43.7132969
  energy:            149.0799847

- temperature:       300.0000000
  free_energy:       144.1001566
  entropy:            18.1093713
  heat_capacity:      46.8863596
  energy:            149.5329680

- temperature:       310.0000000
  free_energy:       143.9111599
  entropy:            19.6986912
  heat_capacity:      50.0721242
  energy:            150.0177542

- temperature:       320.0000000
  free_energy:       143.7060136
  entropy:            21.3387662
  heat_capacity:      53.2604151
  energy:            150.5344188

- temperature:       330.0000000
  free_energy:       143.4842260
  entropy:            23.0264048
  heat_capacity:      56.4418789
  energy:            151.0829396

- temperature:       340.0000000
  free_energy:       143.2453375
  entropy:            24.7584341
  heat_capacity:      59.6080035
  energy:            151.6632051

- temperature:       350.0000000
  free_energy:       142.9889198
  entropy:            26.5317231
  heat_capacity:      62.7511197
  energy:            152.2750229

- temperature:       360.0000000
  free_energy:       142.7145758
  entropy:            28.3432005
  heat_capacity:      65.8643867
  energy:            152.9181279

- temperature:       370.0000000
  free_energy:       142.4219385
  entropy:            30.1898714
  heat_capacity:      68.9417656
  energy:            153.5921909

- temperature:       380.0000000
  free_energy:       142.1106707
  entropy:            32.0688296
  heat_capacity:      71.9779839
  energy:            154.2968260

- temperature:       390.0000000
  free_energy:       141.7804637
  entropy:            33.9772679
  heat_capacity:      74.9684927
  energy:            155.0315982

- temperature:       400.0000000
  free_energy:       141.4310361
  entropy:            35.9124859
  heat_capacity:      77.9094201
  energy:            155.7960305

- temperature:       410.0000000
  free_energy:       141.0621333
  entropy:            37.8718953
  heat_capacity:      80.7975209
  energy:            156.5896104

- temperature:       420.0000000
  free_energy:       140.6735258
  entropy:            39.8530239
  heat_capacity:      83.6301265
  energy:            157.4117959

- temperature:       430.0000000
  free_energy:       140.2650083
  entropy:            41.8535173
  heat_capacity:      86.4050938
  energy:            158.2620208

- temperature:       440.0000000
  free_energy:       139.8363984
  entropy:            43.8711400
  heat_capacity:      89.1207561
  energy:            159.1397000

- temperature:       450.0000000
  free_energy:       139.3875355
  entropy:            45.9037745
  heat_capacity:      91.7758747
  energy:            160.0442340

- temperature:       460.0000000
  free_energy:       138.9182795
  entropy:            47.9494201
  heat_capacity:      94.3695942
  energy:            160.9750128

- temperature:       470.0000000
  free_energy:       138.4285100
  entropy:            50.0061904
  heat_capacity:      96.9013996
  energy:            161.9314195

- temperature:       480.0000000
  free_energy:       137.9181246
  entropy:            52.0723106
  heat_capacity:      99.3710761
  energy:            162.9128337

- temperature:       490.0000000
  free_energy:       137.3870382
  entropy:            54.1461140
  heat_capacity:     101.7786725
  energy:            163.9186340

- temperature:       500.0000000
  free_energy:       136.8351819
  entropy:            56.2260383
  heat_capacity:     104.1244675
  energy:            164.9482011

- temperature:       510.0000000
  free_energy:       136.2625019
  entropy:            58.3106217
  heat_capacity:     106.4089382
  energy:            166.0009190

- temperature:       520.0000000
  free_energy:       135.6689585
  entropy:            60.3984982
  heat_capacity:     108.6327326
  energy:            167.0761776

- temperature:       530.0000000
  free_energy:       135.0545252
  entropy:            62.4883939
  heat_capacity:     110.7966437
  energy:            168.1733740

- temperature:       540.0000000
  free_energy:       134.4191879
  entropy:            64.5791222
  heat_capacity:     112.9015870
  energy:            169.2919139

- temperature:       550.0000000
  free_energy:       133.7629437
  entropy:            66.6695797
  heat_capacity:     114.9485798
  energy:            170.4312126

- temperature:       560.0000000
  free_energy:       133.0858006
  entropy:            68.7587417
  heat_capacity:     116.9387231
  energy:            171.5906960

- temperature:       570.0000000
  free_energy:       132.3877764
  entropy:            70.8456580
  heat_capacity:     118.8731853
  energy:            172.7698014

- temperature:       580.0000000
  free_energy:       131.6688979
  entropy:            72.9294487
  heat_capacity:     120.7531881
  energy:            173.9679781

- temperature:       590.0000000
  free_energy:       130.9292005
  entropy:            75.0093006
  heat_capacity:     122.5799936
  energy:            175.1846878

- temperature:       600.0000000
  free_energy:       130.1687275
  entropy:            77.0844625
  heat_capacity:     124.3548934
  energy:            176.4194050

- temperature:       610.0000000
  free_energy:       129.3875292
  entropy:            79.1542424
  heat_capacity:     126.0791989
  energy:            177.6716171

- temperature:       620.0000000
  free_energy:       128.5856627
  entropy:            81.2180032
  heat_capacity:     127.7542329
  energy:            178.9408247

- temperature:       630.0000000
  free_energy:       127.7631912
  entropy:            83.2751599
  heat_capacity:     129.3813221
  energy:            180.2265419

- temperature:       640.0000000
  free_energy:       126.9201833
  entropy:            85.3251757
  heat_capacity:     130.9617914
  energy:            181.5282958

- temperature:       650.0000000
  free_energy:       126.0567131
  entropy:            87.3675594
  heat_capacity:     132.4969577
  energy:            182.8456267

- temperature:       660.0000000
  free_energy:       125.1728591
  entropy:            89.4018624
  heat_capacity:     133.9881262
  energy:            184.1780883

- temperature:       670.0000000
  free_energy:       124.2687042
  entropy:            91.4276757
  heat_capacity:     135.4365858
  energy:            185.5252469

- temperature:       680.0000000
  free_energy:       123.3443351
  entropy:            93.4446276
  heat_capacity:     136.8436066
  energy:            186.8866819

- temperature:       690.0000000
  free_energy:       122.3998423
  entropy:            95.4523808
  heat_capacity:     138.2104364
  energy:            188.2619851

- temperature:       700.0000000
  free_energy:       121.4353192
  entropy:            97.4506307
  heat_capacity:     139.5382993
  energy:            189.6507607

- temperature:       710.0000000
  free_energy:       120.4508623
  entropy:            99.4391027
  heat_capacity:     140.8283934
  energy:            191.0526251

- temperature:       720.0000000
  free_energy:       119.4465705
  entropy:           101.4175501
  heat_capacity:     142.0818898
  energy:            192.4672066

- temperature:       730.0000000
  free_energy:       118.4225454
  entropy:           103.3857525
  heat_capacity:     143.2999312
  energy:            193.8941448

- temperature:       740.0000000
  free_energy:       117.3788903
  entropy:           105.3435141
  heat_capacity:     144.4836313
  energy:            195.3330907

- temperature:       750.0000000
  free_energy:       116.3157105
  entropy:           107.2906614
  heat_capacity:     145.6340744
  energy:            196.7837065

- temperature:       760.0000000
  free_energy:       115.2331130
  entropy:           109.2270420
  heat_capacity:     146.7523148
  energy:            198.2456649

- temperature:       770.0000000
  free_energy:       114.1312060
  entropy:           111.1525233
  heat_capacity:     147.8393771
  energy:            199.7186489

- temperature:       780.0000000
  free_energy:       113.0100992
  entropy:           113.0669905
  heat_capacity:     148.8962557
  energy:            201.2023518

- temperature:       790.0000000
  free_energy:       111.8699032
  entropy:           114.9703461
  heat_capacity:     149.9239154
  energy:            202.6964766

- temperature:       800.0000000
  free_energy:       110.7107296
  entropy:           116.8625078
  heat_capacity:     150.9232913
  energy:            204.2007358

- temperature:       810.0000000
  free_energy:       109.5326906
  entropy:           118.7434081
  heat_capacity:     151.8952895
  energy:            205.7148512

- temperature:       820.0000000
  free_energy:       108.3358992
  entropy:           120.6129929
  heat_capacity:     152.8407875
  energy:            207.2385533

- temperature:       830.0000000
  free_energy:       107.1204686
  entropy:           122.4712203
  heat_capacity:     153.7606345
  energy:            208.7715814

- temperature:       840.0000000
  free_energy:       105.8865127
  entropy:           124.3180601
  heat_capacity:     154.6556521
  energy:            210.3136832

- temperature:       850.0000000
  free_energy:       104.6341454
  entropy:           126.1534929
  heat_capacity:     155.5266349
  energy:            211.8646144

- temperature:       860.0000000
  free_energy:       103.3634809
  entropy:           127.9775087
  heat_capacity:     156.3743513
  energy:            213.4241384

- temperature:       870.0000000
  free_energy:       102.0746333
  entropy:           129.7901069
  heat_capacity:     157.1995436
  energy:            214.9920263

- temperature:       880.0000000
  free_energy:       100.7677168
  entropy:           131.5912952
  heat_capacity:     158.0029296
  energy:            216.5680566

- temperature:       890.0000000
  free_energy:        99.4428454
  entropy:           133.3810889
  heat_capacity:     158.7852024
  energy:            218.1520145

- temperature:       900.0000000
  free_energy:        98.1001329
  entropy:           135.1595106
  heat_capacity:     159.5470316
  energy:            219.7436925

- temperature:       910.0000000
  free_energy:        96.7396930
  entropy:           136.9265892
  heat_capacity:     160.2890639
  energy:            221.3428892

- temperature:       920.0000000
  free_energy:        95.3616388
  entropy:           138.6823598
  heat_capacity:     161.0119238
  energy:            222.9494098

- temperature:       930.0000000
  free_energy:        93.9660834
  entropy:           140.4268628
  heat_capacity:     161.7162143
  energy:            224.5630658

- temperature:       940.0000000
  free_energy:        92.5531390
  entropy:           142.1601438
  heat_capacity:     162.4025174
  energy:            226.1836742

- temperature:       950.0000000
  free_energy:        91.1229177
  entropy:           143.8822530
  heat_capacity:     163.0713951
  energy:            227.8110580

- temperature:       960.0000000
  free_energy:        89.6755310
  entropy:           145.5932446
  heat_capacity:     163.7233900
  energy:            229.4450458

- temperature:       970.0000000
  free_energy:        88.2110897
  entropy:           147.2931769
  heat_capacity:     164.3590258
  energy:            231.0854713

- temperature:       980.0000000
  free_energy:        86.7297041
  entropy:           148.9821116
  heat_capacity:     164.9788080
  energy:            232.7321735

- temperature:       990.0000000
  free_energy:        85.2314839
  entropy:           150.6601135
  heat_capacity:     165.5832245
  energy:            234.3849962

- temperature:      1000.0000000
  free_energy:        83.7165381
  entropy:           152.3272503
  heat_capacity:     166.1727464
  energy:            236.0437883
