  32   32
1 1
    44.529409762809998     0.000000000000000     0.000000000000000
     0.000000000000000    44.529399673569998    -0.000000000000000
     0.000000000000000    -0.000000000000000    42.855377478579996
1 2
    -6.342356902699999     0.000000000000000    -0.000000000000000
     0.000000000000000     2.207428062570000    -1.324250104210000
    -0.000000000000000    -1.324250104210000     1.264134328550000
1 3
     0.069982211610000     3.702165303530000     1.146834302000000
     3.702165303530000    -4.204909610420000     0.662124992050000
     1.146834302000000     0.662124992050000     1.264134328550000
1 4
     0.069982211610000    -3.702165303530000    -1.146834302000000
    -3.702165303530000    -4.204909610420000     0.662124992050000
    -1.146834302000000     0.662124992050000     1.264134328550000
1 5
    -0.108848126070000    -0.000000000000000    -0.000000000000000
    -0.000000000000000    -0.108848005960000     0.000000000000000
    -0.000000000000000     0.000000000000000     0.015037051340000
1 6
     0.127391428530000    -0.000000000000000    -0.000000000000000
    -0.000000000000000    -0.072956615650000    -0.082040895280000
    -0.000000000000000    -0.082040895280000    -0.067531246950000
1 7
    -0.022869664660000    -0.086753291020000     0.071049509070000
    -0.086753291020000     0.077304477540000     0.041020447640000
     0.071049509070000     0.041020447640000    -0.067531246950000
1 8
    -0.022869664660000     0.086753291020000    -0.071049509070000
     0.086753291020000     0.077304477540000     0.041020447640000
    -0.071049509070000     0.041020447640000    -0.067531246950000
1 9
     0.112922257270000    -0.108208420210000     2.327051256739999
    -0.108208420210000    -0.012026133860000    -1.343523555360000
     0.998881002350000    -0.576704201370000    -1.799269539910000
1 10
     0.112922257270000     0.108208420210000    -2.327051256739999
     0.108208420210000    -0.012026133860000    -1.343523555360000
    -0.998881002350000    -0.576704201370000    -1.799269539910000
1 11
    -0.074500269370000     0.000000000000000     0.000000000000000
     0.000000000000000     0.175396392780000     2.687046990610000
     0.000000000000000     1.153408402740000    -1.799269539910000
1 12
     0.009575769750000    -0.000000000000000    -0.000000000000000
     0.000000000000000     0.009575769750000    -0.000000000000000
    -0.000000000000000    -0.000000000000000    -0.146996863720000
1 13
     0.112922257270000    -0.108208420210000    -0.998881002350000
    -0.108208420210000    -0.012026133860000     0.576704201370000
    -2.327051256739999     1.343523555360000    -1.799269539910000
1 14
     0.112922257270000     0.108208420210000     0.998881002350000
     0.108208420210000    -0.012026133860000     0.576704201370000
     2.327051256739999     1.343523555360000    -1.799269539910000
1 15
    -0.074500269370000     0.000000000000000    -0.000000000000000
     0.000000000000000     0.175396392780000    -1.153408402740000
    -0.000000000000000    -2.687046990610000    -1.799269539910000
1 16
     0.009575769750000     0.000000000000000    -0.000000000000000
     0.000000000000000     0.009575769750000    -0.000000000000000
    -0.000000000000000     0.000000000000000    -0.146996863720000
1 17
    -0.332431930190000     0.244974194020000    -0.015413355970000
     0.244974194020000    -0.049560148530000     0.008898949900000
    -0.015413355970000     0.008898949900000     0.170276223590000
1 18
    -0.332431930190000    -0.244974194020000     0.015413355970000
    -0.244974194020000    -0.049560148530000     0.008898949900000
     0.015413355970000     0.008898949900000     0.170276223590000
1 19
     0.091875862410000    -0.000000000000000    -0.000000000000000
    -0.000000000000000    -0.473867821020000    -0.017797779690000
    -0.000000000000000    -0.017797779690000     0.170276223590000
1 20
    -0.011566112560000    -0.000000000000000     0.000000000000000
    -0.000000000000000    -0.011566112560000    -0.000000000000000
     0.000000000000000    -0.000000000000000    -0.108248056510000
1 21
   -12.544754907240000     3.021754885190000    -2.088393287290000
     3.021754885190000    -9.055530460729999     1.205734204130000
    -2.088393287290000     1.205734204130000    -7.699639539000000
1 22
   -12.544754907240000    -3.021754885190000     2.088393287290000
    -3.021754885190000    -9.055530460729999     1.205734204130000
     2.088393287290000     1.205734204130000    -7.699639539000000
1 23
    -7.310921300280000    -0.000000000000000    -0.000000000000000
    -0.000000000000000   -14.289362866589999    -2.411468528370000
    -0.000000000000000    -2.411468528370000    -7.699639539000000
1 24
     0.636658068750000     0.000000000000000     0.000000000000000
     0.000000000000000     0.636657948640000    -0.000000000000000
     0.000000000000000    -0.000000000000000     0.011730903480000
1 25
    -6.822300488070000    -0.000000000000000    -0.000000000000000
    -0.000000000000000    -6.822299046750000    -0.000000000000000
    -0.000000000000000     0.000000000000000   -11.331817225969999
1 26
     0.281072894190000     0.000000000000000     0.000000000000000
     0.000000000000000     0.123097616140000     0.041118577510000
    -0.000000000000000    -0.041118577510000     0.078754925900000
1 27
     0.162591465680000    -0.068405287420000    -0.035609732360000
    -0.068405287420000     0.241579044650000    -0.020559228700000
     0.035609732360000     0.020559228700000     0.078754925900000
1 28
     0.162591465680000     0.068405287420000     0.035609732360000
     0.068405287420000     0.241579044650000    -0.020559228700000
    -0.035609732360000     0.020559228700000     0.078754925900000
1 29
     0.239154384080000     0.000000000000000    -0.000000000000000
     0.000000000000000     0.239154384080000     0.000000000000000
    -0.000000000000000     0.000000000000000    -0.064773161020000
1 30
    -0.144971088460000    -0.000000000000000    -0.000000000000000
    -0.000000000000000    -0.052658025650000    -0.185623038620000
     0.000000000000000     0.185623038620000    -0.508560033090000
1 31
    -0.075736321380000     0.039972728110000     0.160754263120000
     0.039972728110000    -0.121892792730000     0.092811519310000
    -0.160754263120000    -0.092811519310000    -0.508560033090000
1 32
    -0.075736321380000    -0.039972728110000    -0.160754263120000
    -0.039972728110000    -0.121892792730000     0.092811519310000
     0.160754263120000    -0.092811519310000    -0.508560033090000
2 1
    -6.342356902699999     0.000000000000000    -0.000000000000000
     0.000000000000000     2.207428062570000    -1.324250104210000
    -0.000000000000000    -1.324250104210000     1.264134328550000
2 2
    44.529409762809998     0.000000000000000     0.000000000000000
     0.000000000000000    44.529399673569998    -0.000000000000000
     0.000000000000000    -0.000000000000000    42.855377478579996
2 3
     0.069982211610000    -3.702165303530000    -1.146834302000000
    -3.702165303530000    -4.204909610420000     0.662124992050000
    -1.146834302000000     0.662124992050000     1.264134328550000
2 4
     0.069982211610000     3.702165303530000     1.146834302000000
     3.702165303530000    -4.204909610420000     0.662124992050000
     1.146834302000000     0.662124992050000     1.264134328550000
2 5
     0.127391428530000    -0.000000000000000    -0.000000000000000
    -0.000000000000000    -0.072956615650000    -0.082040895280000
    -0.000000000000000    -0.082040895280000    -0.067531246950000
2 6
    -0.108848126070000    -0.000000000000000    -0.000000000000000
    -0.000000000000000    -0.108848005960000     0.000000000000000
    -0.000000000000000     0.000000000000000     0.015037051340000
2 7
    -0.022869664660000     0.086753291020000    -0.071049509070000
     0.086753291020000     0.077304477540000     0.041020447640000
    -0.071049509070000     0.041020447640000    -0.067531246950000
2 8
    -0.022869664660000    -0.086753291020000     0.071049509070000
    -0.086753291020000     0.077304477540000     0.041020447640000
     0.071049509070000     0.041020447640000    -0.067531246950000
2 9
     0.112922257270000     0.108208420210000    -2.327051256739999
     0.108208420210000    -0.012026133860000    -1.343523555360000
    -0.998881002350000    -0.576704201370000    -1.799269539910000
2 10
     0.112922257270000    -0.108208420210000     2.327051256739999
    -0.108208420210000    -0.012026133860000    -1.343523555360000
     0.998881002350000    -0.576704201370000    -1.799269539910000
2 11
     0.009575769750000    -0.000000000000000    -0.000000000000000
     0.000000000000000     0.009575769750000    -0.000000000000000
    -0.000000000000000    -0.000000000000000    -0.146996863720000
2 12
    -0.074500269370000     0.000000000000000     0.000000000000000
     0.000000000000000     0.175396392780000     2.687046990610000
     0.000000000000000     1.153408402740000    -1.799269539910000
2 13
     0.112922257270000     0.108208420210000     0.998881002350000
     0.108208420210000    -0.012026133860000     0.576704201370000
     2.327051256739999     1.343523555360000    -1.799269539910000
2 14
     0.112922257270000    -0.108208420210000    -0.998881002350000
    -0.108208420210000    -0.012026133860000     0.576704201370000
    -2.327051256739999     1.343523555360000    -1.799269539910000
2 15
     0.009575769750000     0.000000000000000    -0.000000000000000
     0.000000000000000     0.009575769750000    -0.000000000000000
    -0.000000000000000     0.000000000000000    -0.146996863720000
2 16
    -0.074500269370000     0.000000000000000    -0.000000000000000
     0.000000000000000     0.175396392780000    -1.153408402740000
    -0.000000000000000    -2.687046990610000    -1.799269539910000
2 17
    -0.332431930190000    -0.244974194020000     0.015413355970000
    -0.244974194020000    -0.049560148530000     0.008898949900000
     0.015413355970000     0.008898949900000     0.170276223590000
2 18
    -0.332431930190000     0.244974194020000    -0.015413355970000
     0.244974194020000    -0.049560148530000     0.008898949900000
    -0.015413355970000     0.008898949900000     0.170276223590000
2 19
    -0.011566112560000    -0.000000000000000     0.000000000000000
    -0.000000000000000    -0.011566112560000    -0.000000000000000
     0.000000000000000    -0.000000000000000    -0.108248056510000
2 20
     0.091875862410000    -0.000000000000000    -0.000000000000000
    -0.000000000000000    -0.473867821020000    -0.017797779690000
    -0.000000000000000    -0.017797779690000     0.170276223590000
2 21
   -12.544754907240000    -3.021754885190000     2.088393287290000
    -3.021754885190000    -9.055530460729999     1.205734204130000
     2.088393287290000     1.205734204130000    -7.699639539000000
2 22
   -12.544754907240000     3.021754885190000    -2.088393287290000
     3.021754885190000    -9.055530460729999     1.205734204130000
    -2.088393287290000     1.205734204130000    -7.699639539000000
2 23
     0.636658068750000     0.000000000000000     0.000000000000000
     0.000000000000000     0.636657948640000    -0.000000000000000
     0.000000000000000    -0.000000000000000     0.011730903480000
2 24
    -7.310921300280000    -0.000000000000000    -0.000000000000000
    -0.000000000000000   -14.289362866589999    -2.411468528370000
    -0.000000000000000    -2.411468528370000    -7.699639539000000
2 25
     0.281072894190000     0.000000000000000     0.000000000000000
     0.000000000000000     0.123097616140000     0.041118577510000
    -0.000000000000000    -0.041118577510000     0.078754925900000
2 26
    -6.822300488070000    -0.000000000000000    -0.000000000000000
    -0.000000000000000    -6.822299046750000    -0.000000000000000
    -0.000000000000000     0.000000000000000   -11.331817225969999
2 27
     0.162591465680000     0.068405287420000     0.035609732360000
     0.068405287420000     0.241579044650000    -0.020559228700000
    -0.035609732360000     0.020559228700000     0.078754925900000
2 28
     0.162591465680000    -0.068405287420000    -0.035609732360000
    -0.068405287420000     0.241579044650000    -0.020559228700000
     0.035609732360000     0.020559228700000     0.078754925900000
2 29
    -0.144971088460000    -0.000000000000000    -0.000000000000000
    -0.000000000000000    -0.052658025650000    -0.185623038620000
     0.000000000000000     0.185623038620000    -0.508560033090000
2 30
     0.239154384080000     0.000000000000000    -0.000000000000000
     0.000000000000000     0.239154384080000     0.000000000000000
    -0.000000000000000     0.000000000000000    -0.064773161020000
2 31
    -0.075736321380000    -0.039972728110000    -0.160754263120000
    -0.039972728110000    -0.121892792730000     0.092811519310000
     0.160754263120000    -0.092811519310000    -0.508560033090000
2 32
    -0.075736321380000     0.039972728110000     0.160754263120000
     0.039972728110000    -0.121892792730000     0.092811519310000
    -0.160754263120000    -0.092811519310000    -0.508560033090000
3 1
     0.069982211610000     3.702165303530000     1.146834302000000
     3.702165303530000    -4.204909610420000     0.662124992050000
     1.146834302000000     0.662124992050000     1.264134328550000
3 2
     0.069982211610000    -3.702165303530000    -1.146834302000000
    -3.702165303530000    -4.204909610420000     0.662124992050000
    -1.146834302000000     0.662124992050000     1.264134328550000
3 3
    44.529409762809998     0.000000000000000     0.000000000000000
     0.000000000000000    44.529399673569998    -0.000000000000000
     0.000000000000000    -0.000000000000000    42.855377478579996
3 4
    -6.342356902699999     0.000000000000000    -0.000000000000000
     0.000000000000000     2.207428062570000    -1.324250104210000
    -0.000000000000000    -1.324250104210000     1.264134328550000
3 5
    -0.022869664660000    -0.086753291020000     0.071049509070000
    -0.086753291020000     0.077304477540000     0.041020447640000
     0.071049509070000     0.041020447640000    -0.067531246950000
3 6
    -0.022869664660000     0.086753291020000    -0.071049509070000
     0.086753291020000     0.077304477540000     0.041020447640000
    -0.071049509070000     0.041020447640000    -0.067531246950000
3 7
    -0.108848126070000    -0.000000000000000    -0.000000000000000
    -0.000000000000000    -0.108848005960000     0.000000000000000
    -0.000000000000000     0.000000000000000     0.015037051340000
3 8
     0.127391428530000    -0.000000000000000    -0.000000000000000
    -0.000000000000000    -0.072956615650000    -0.082040895280000
    -0.000000000000000    -0.082040895280000    -0.067531246950000
3 9
    -0.074500269370000     0.000000000000000     0.000000000000000
     0.000000000000000     0.175396392780000     2.687046990610000
     0.000000000000000     1.153408402740000    -1.799269539910000
3 10
     0.009575769750000    -0.000000000000000    -0.000000000000000
     0.000000000000000     0.009575769750000    -0.000000000000000
    -0.000000000000000    -0.000000000000000    -0.146996863720000
3 11
     0.112922257270000    -0.108208420210000     2.327051256739999
    -0.108208420210000    -0.012026133860000    -1.343523555360000
     0.998881002350000    -0.576704201370000    -1.799269539910000
3 12
     0.112922257270000     0.108208420210000    -2.327051256739999
     0.108208420210000    -0.012026133860000    -1.343523555360000
    -0.998881002350000    -0.576704201370000    -1.799269539910000
3 13
    -0.074500269370000     0.000000000000000    -0.000000000000000
     0.000000000000000     0.175396392780000    -1.153408402740000
    -0.000000000000000    -2.687046990610000    -1.799269539910000
3 14
     0.009575769750000     0.000000000000000    -0.000000000000000
     0.000000000000000     0.009575769750000    -0.000000000000000
    -0.000000000000000     0.000000000000000    -0.146996863720000
3 15
     0.112922257270000    -0.108208420210000    -0.998881002350000
    -0.108208420210000    -0.012026133860000     0.576704201370000
    -2.327051256739999     1.343523555360000    -1.799269539910000
3 16
     0.112922257270000     0.108208420210000     0.998881002350000
     0.108208420210000    -0.012026133860000     0.576704201370000
     2.327051256739999     1.343523555360000    -1.799269539910000
3 17
     0.091875862410000    -0.000000000000000    -0.000000000000000
    -0.000000000000000    -0.473867821020000    -0.017797779690000
    -0.000000000000000    -0.017797779690000     0.170276223590000
3 18
    -0.011566112560000    -0.000000000000000     0.000000000000000
    -0.000000000000000    -0.011566112560000    -0.000000000000000
     0.000000000000000    -0.000000000000000    -0.108248056510000
3 19
    -0.332431930190000     0.244974194020000    -0.015413355970000
     0.244974194020000    -0.049560148530000     0.008898949900000
    -0.015413355970000     0.008898949900000     0.170276223590000
3 20
    -0.332431930190000    -0.244974194020000     0.015413355970000
    -0.244974194020000    -0.049560148530000     0.008898949900000
     0.015413355970000     0.008898949900000     0.170276223590000
3 21
    -7.310921300280000    -0.000000000000000    -0.000000000000000
    -0.000000000000000   -14.289362866589999    -2.411468528370000
    -0.000000000000000    -2.411468528370000    -7.699639539000000
3 22
     0.636658068750000     0.000000000000000     0.000000000000000
     0.000000000000000     0.636657948640000    -0.000000000000000
     0.000000000000000    -0.000000000000000     0.011730903480000
3 23
   -12.544754907240000     3.021754885190000    -2.088393287290000
     3.021754885190000    -9.055530460729999     1.205734204130000
    -2.088393287290000     1.205734204130000    -7.699639539000000
3 24
   -12.544754907240000    -3.021754885190000     2.088393287290000
    -3.021754885190000    -9.055530460729999     1.205734204130000
     2.088393287290000     1.205734204130000    -7.699639539000000
3 25
     0.162591465680000    -0.068405287420000    -0.035609732360000
    -0.068405287420000     0.241579044650000    -0.020559228700000
     0.035609732360000     0.020559228700000     0.078754925900000
3 26
     0.162591465680000     0.068405287420000     0.035609732360000
     0.068405287420000     0.241579044650000    -0.020559228700000
    -0.035609732360000     0.020559228700000     0.078754925900000
3 27
    -6.822300488070000    -0.000000000000000    -0.000000000000000
    -0.000000000000000    -6.822299046750000    -0.000000000000000
    -0.000000000000000     0.000000000000000   -11.331817225969999
3 28
     0.281072894190000     0.000000000000000     0.000000000000000
     0.000000000000000     0.123097616140000     0.041118577510000
    -0.000000000000000    -0.041118577510000     0.078754925900000
3 29
    -0.075736321380000     0.039972728110000     0.160754263120000
     0.039972728110000    -0.121892792730000     0.092811519310000
    -0.160754263120000    -0.092811519310000    -0.508560033090000
3 30
    -0.075736321380000    -0.039972728110000    -0.160754263120000
    -0.039972728110000    -0.121892792730000     0.092811519310000
     0.160754263120000    -0.092811519310000    -0.508560033090000
3 31
     0.239154384080000     0.000000000000000    -0.000000000000000
     0.000000000000000     0.239154384080000     0.000000000000000
    -0.000000000000000     0.000000000000000    -0.064773161020000
3 32
    -0.144971088460000    -0.000000000000000    -0.000000000000000
    -0.000000000000000    -0.052658025650000    -0.185623038620000
     0.000000000000000     0.185623038620000    -0.508560033090000
4 1
     0.069982211610000    -3.702165303530000    -1.146834302000000
    -3.702165303530000    -4.204909610420000     0.662124992050000
    -1.146834302000000     0.662124992050000     1.264134328550000
4 2
     0.069982211610000     3.702165303530000     1.146834302000000
     3.702165303530000    -4.204909610420000     0.662124992050000
     1.146834302000000     0.662124992050000     1.264134328550000
4 3
    -6.342356902699999     0.000000000000000    -0.000000000000000
     0.000000000000000     2.207428062570000    -1.324250104210000
    -0.000000000000000    -1.324250104210000     1.264134328550000
4 4
    44.529409762809998     0.000000000000000     0.000000000000000
     0.000000000000000    44.529399673569998    -0.000000000000000
     0.000000000000000    -0.000000000000000    42.855377478579996
4 5
    -0.022869664660000     0.086753291020000    -0.071049509070000
     0.086753291020000     0.077304477540000     0.041020447640000
    -0.071049509070000     0.041020447640000    -0.067531246950000
4 6
    -0.022869664660000    -0.086753291020000     0.071049509070000
    -0.086753291020000     0.077304477540000     0.041020447640000
     0.071049509070000     0.041020447640000    -0.067531246950000
4 7
     0.127391428530000    -0.000000000000000    -0.000000000000000
    -0.000000000000000    -0.072956615650000    -0.082040895280000
    -0.000000000000000    -0.082040895280000    -0.067531246950000
4 8
    -0.108848126070000    -0.000000000000000    -0.000000000000000
    -0.000000000000000    -0.108848005960000     0.000000000000000
    -0.000000000000000     0.000000000000000     0.015037051340000
4 9
     0.009575769750000    -0.000000000000000    -0.000000000000000
     0.000000000000000     0.009575769750000    -0.000000000000000
    -0.000000000000000    -0.000000000000000    -0.146996863720000
4 10
    -0.074500269370000     0.000000000000000     0.000000000000000
     0.000000000000000     0.175396392780000     2.687046990610000
     0.000000000000000     1.153408402740000    -1.799269539910000
4 11
     0.112922257270000     0.108208420210000    -2.327051256739999
     0.108208420210000    -0.012026133860000    -1.343523555360000
    -0.998881002350000    -0.576704201370000    -1.799269539910000
4 12
     0.112922257270000    -0.108208420210000     2.327051256739999
    -0.108208420210000    -0.012026133860000    -1.343523555360000
     0.998881002350000    -0.576704201370000    -1.799269539910000
4 13
     0.009575769750000     0.000000000000000    -0.000000000000000
     0.000000000000000     0.009575769750000    -0.000000000000000
    -0.000000000000000     0.000000000000000    -0.146996863720000
4 14
    -0.074500269370000     0.000000000000000    -0.000000000000000
     0.000000000000000     0.175396392780000    -1.153408402740000
    -0.000000000000000    -2.687046990610000    -1.799269539910000
4 15
     0.112922257270000     0.108208420210000     0.998881002350000
     0.108208420210000    -0.012026133860000     0.576704201370000
     2.327051256739999     1.343523555360000    -1.799269539910000
4 16
     0.112922257270000    -0.108208420210000    -0.998881002350000
    -0.108208420210000    -0.012026133860000     0.576704201370000
    -2.327051256739999     1.343523555360000    -1.799269539910000
4 17
    -0.011566112560000    -0.000000000000000     0.000000000000000
    -0.000000000000000    -0.011566112560000    -0.000000000000000
     0.000000000000000    -0.000000000000000    -0.108248056510000
4 18
     0.091875862410000    -0.000000000000000    -0.000000000000000
    -0.000000000000000    -0.473867821020000    -0.017797779690000
    -0.000000000000000    -0.017797779690000     0.170276223590000
4 19
    -0.332431930190000    -0.244974194020000     0.015413355970000
    -0.244974194020000    -0.049560148530000     0.008898949900000
     0.015413355970000     0.008898949900000     0.170276223590000
4 20
    -0.332431930190000     0.244974194020000    -0.015413355970000
     0.244974194020000    -0.049560148530000     0.008898949900000
    -0.015413355970000     0.008898949900000     0.170276223590000
4 21
     0.636658068750000     0.000000000000000     0.000000000000000
     0.000000000000000     0.636657948640000    -0.000000000000000
     0.000000000000000    -0.000000000000000     0.011730903480000
4 22
    -7.310921300280000    -0.000000000000000    -0.000000000000000
    -0.000000000000000   -14.289362866589999    -2.411468528370000
    -0.000000000000000    -2.411468528370000    -7.699639539000000
4 23
   -12.544754907240000    -3.021754885190000     2.088393287290000
    -3.021754885190000    -9.055530460729999     1.205734204130000
     2.088393287290000     1.205734204130000    -7.699639539000000
4 24
   -12.544754907240000     3.021754885190000    -2.088393287290000
     3.021754885190000    -9.055530460729999     1.205734204130000
    -2.088393287290000     1.205734204130000    -7.699639539000000
4 25
     0.162591465680000     0.068405287420000     0.035609732360000
     0.068405287420000     0.241579044650000    -0.020559228700000
    -0.035609732360000     0.020559228700000     0.078754925900000
4 26
     0.162591465680000    -0.068405287420000    -0.035609732360000
    -0.068405287420000     0.241579044650000    -0.020559228700000
     0.035609732360000     0.020559228700000     0.078754925900000
4 27
     0.281072894190000     0.000000000000000     0.000000000000000
     0.000000000000000     0.123097616140000     0.041118577510000
    -0.000000000000000    -0.041118577510000     0.078754925900000
4 28
    -6.822300488070000    -0.000000000000000    -0.000000000000000
    -0.000000000000000    -6.822299046750000    -0.000000000000000
    -0.000000000000000     0.000000000000000   -11.331817225969999
4 29
    -0.075736321380000    -0.039972728110000    -0.160754263120000
    -0.039972728110000    -0.121892792730000     0.092811519310000
     0.160754263120000    -0.092811519310000    -0.508560033090000
4 30
    -0.075736321380000     0.039972728110000     0.160754263120000
     0.039972728110000    -0.121892792730000     0.092811519310000
    -0.160754263120000    -0.092811519310000    -0.508560033090000
4 31
    -0.144971088460000    -0.000000000000000    -0.000000000000000
    -0.000000000000000    -0.052658025650000    -0.185623038620000
     0.000000000000000     0.185623038620000    -0.508560033090000
4 32
     0.239154384080000     0.000000000000000    -0.000000000000000
     0.000000000000000     0.239154384080000     0.000000000000000
    -0.000000000000000     0.000000000000000    -0.064773161020000
5 1
    -0.108848126070000    -0.000000000000000    -0.000000000000000
    -0.000000000000000    -0.108848005960000     0.000000000000000
    -0.000000000000000     0.000000000000000     0.015037051340000
5 2
     0.127391428530000    -0.000000000000000    -0.000000000000000
    -0.000000000000000    -0.072956615650000    -0.082040895280000
    -0.000000000000000    -0.082040895280000    -0.067531246950000
5 3
    -0.022869664660000    -0.086753291020000     0.071049509070000
    -0.086753291020000     0.077304477540000     0.041020447640000
     0.071049509070000     0.041020447640000    -0.067531246950000
5 4
    -0.022869664660000     0.086753291020000    -0.071049509070000
     0.086753291020000     0.077304477540000     0.041020447640000
    -0.071049509070000     0.041020447640000    -0.067531246950000
5 5
    44.529409762809998     0.000000000000000     0.000000000000000
     0.000000000000000    44.529399673569998    -0.000000000000000
     0.000000000000000    -0.000000000000000    42.855377478579996
5 6
    -6.342356902699999     0.000000000000000    -0.000000000000000
     0.000000000000000     2.207428062570000    -1.324250104210000
    -0.000000000000000    -1.324250104210000     1.264134328550000
5 7
     0.069982211610000     3.702165303530000     1.146834302000000
     3.702165303530000    -4.204909610420000     0.662124992050000
     1.146834302000000     0.662124992050000     1.264134328550000
5 8
     0.069982211610000    -3.702165303530000    -1.146834302000000
    -3.702165303530000    -4.204909610420000     0.662124992050000
    -1.146834302000000     0.662124992050000     1.264134328550000
5 9
     0.112922257270000    -0.108208420210000    -0.998881002350000
    -0.108208420210000    -0.012026133860000     0.576704201370000
    -2.327051256739999     1.343523555360000    -1.799269539910000
5 10
     0.112922257270000     0.108208420210000     0.998881002350000
     0.108208420210000    -0.012026133860000     0.576704201370000
     2.327051256739999     1.343523555360000    -1.799269539910000
5 11
    -0.074500269370000     0.000000000000000    -0.000000000000000
     0.000000000000000     0.175396392780000    -1.153408402740000
    -0.000000000000000    -2.687046990610000    -1.799269539910000
5 12
     0.009575769750000     0.000000000000000    -0.000000000000000
     0.000000000000000     0.009575769750000    -0.000000000000000
    -0.000000000000000     0.000000000000000    -0.146996863720000
5 13
     0.112922257270000    -0.108208420210000     2.327051256739999
    -0.108208420210000    -0.012026133860000    -1.343523555360000
     0.998881002350000    -0.576704201370000    -1.799269539910000
5 14
     0.112922257270000     0.108208420210000    -2.327051256739999
     0.108208420210000    -0.012026133860000    -1.343523555360000
    -0.998881002350000    -0.576704201370000    -1.799269539910000
5 15
    -0.074500269370000     0.000000000000000     0.000000000000000
     0.000000000000000     0.175396392780000     2.687046990610000
     0.000000000000000     1.153408402740000    -1.799269539910000
5 16
     0.009575769750000    -0.000000000000000    -0.000000000000000
     0.000000000000000     0.009575769750000    -0.000000000000000
    -0.000000000000000    -0.000000000000000    -0.146996863720000
5 17
   -12.544754907240000     3.021754885190000    -2.088393287290000
     3.021754885190000    -9.055530460729999     1.205734204130000
    -2.088393287290000     1.205734204130000    -7.699639539000000
5 18
   -12.544754907240000    -3.021754885190000     2.088393287290000
    -3.021754885190000    -9.055530460729999     1.205734204130000