       N       E                     dE             d eps       ncg     rms          rms(c)
DAV:   1    -0.100124778865E+03   -0.10012E+03   -0.59969E+04  1792   0.924E+02
DAV:   2    -0.669352945161E+03   -0.56923E+03   -0.54129E+03  2240   0.237E+02
DAV:   3    -0.695256145810E+03   -0.25903E+02   -0.25614E+02  2496   0.453E+01
DAV:   4    -0.695772536577E+03   -0.51639E+00   -0.51449E+00  2416   0.645E+00
DAV:   5    -0.695784696089E+03   -0.12160E-01   -0.12149E-01  2432   0.979E-01    0.914E+01
RMM:   6    -0.397727581950E+03    0.29806E+03   -0.17765E+02  1792   0.322E+01    0.488E+01
RMM:   7    -0.288347451909E+03    0.10938E+03   -0.26582E+02  1792   0.383E+01    0.624E+00
RMM:   8    -0.288734046243E+03   -0.38659E+00   -0.16720E+00  1792   0.411E+00    0.218E+00
RMM:   9    -0.288967545824E+03   -0.23350E+00   -0.36373E-01  1792   0.220E+00    0.678E-01
RMM:  10    -0.288987812062E+03   -0.20266E-01   -0.60785E-02  1792   0.790E-01    0.171E-01
RMM:  11    -0.288988597565E+03   -0.78550E-03   -0.17767E-03  1792   0.134E-01    0.139E-01
RMM:  12    -0.288988433603E+03    0.16396E-03   -0.36317E-04  1792   0.601E-02    0.377E-02
RMM:  13    -0.288988405271E+03    0.28332E-04   -0.11880E-04  1792   0.304E-02    0.314E-03
RMM:  14    -0.288988406113E+03   -0.84171E-06   -0.27194E-06  1423   0.522E-03
   1 F= -.23189061E+03 E0= -.23189061E+03  d E =0.000000E+00  mag=    -0.0000
 Linear response reoptimize wavefunctions
DAV:   1    -0.288988407278E+03   -0.57098E+02   -0.64055E-07  1904   0.263E-03
DAV:   2    -0.288988407279E+03   -0.16067E-08   -0.17184E-08  1664   0.327E-04
DAV:   3    -0.288988407279E+03   -0.94076E-10   -0.43841E-10  1536   0.664E-05
 Linear response DOF=            2
 Linear response progress:
  Degree of freedom:   1/  2
       N       E                     dE             d eps       ncg     rms          rms(c)
RMM:   1    -0.143956050022E+00   -0.14396E+00    0.22915E-02 10064   0.862E-01
RMM:   2    -0.124444618028E+00    0.19511E-01   -0.58977E-03  5886   0.197E-01    0.182E-01
RMM:   3    -0.124396371794E+00    0.48246E-04   -0.75071E-04  6091   0.544E-02    0.931E-02
RMM:   4    -0.124780589685E+00   -0.38422E-03   -0.18644E-04  5906   0.296E-02    0.288E-02
RMM:   5    -0.124918124042E+00   -0.13753E-03   -0.13959E-05  6174   0.902E-03    0.703E-03
RMM:   6    -0.124888854284E+00    0.29270E-04   -0.20708E-06  6153   0.278E-03    0.913E-04
RMM:   7    -0.124884044500E+00    0.48098E-05    0.10901E-07  6583   0.426E-04    0.326E-04
RMM:   8    -0.124883220404E+00    0.82410E-06    0.67911E-08  6942   0.181E-04    0.130E-04
 Linear response progress:
  Degree of freedom:   2/  2
       N       E                     dE             d eps       ncg     rms          rms(c)
RMM:   1    -0.144158397065E+00   -0.14416E+00    0.26140E-02  5084   0.831E-01
RMM:   2    -0.125575461520E+00    0.18583E-01   -0.55911E-03  2885   0.187E-01    0.181E-01
RMM:   3    -0.125518080633E+00    0.57381E-04   -0.67685E-04  2938   0.538E-02    0.922E-02
RMM:   4    -0.125875654678E+00   -0.35757E-03   -0.18621E-04  2826   0.301E-02    0.277E-02
RMM:   5    -0.125986970820E+00   -0.11132E-03   -0.12436E-05  3020   0.877E-03    0.718E-03
RMM:   6    -0.125957846719E+00    0.29124E-04    0.10771E-07  3024   0.285E-03    0.146E-03
RMM:   7    -0.125950568665E+00    0.72781E-05    0.25463E-06  3138   0.636E-04    0.401E-04
RMM:   8    -0.125948435607E+00    0.21331E-05    0.37693E-06  3306   0.224E-04    0.158E-04
RMM:   9    -0.125948205956E+00    0.22965E-06    0.51989E-06  3499   0.108E-04    0.684E-05
 Linear response finished
