mesh: [    48,    48,    48 ]
nqpoint: 2600   
reciprocal_lattice:
- [   0.28474720,   0.00000000,   0.00000000 ] # a*
- [   0.00000000,   0.28474720,   0.00000000 ] # b*
- [   0.00000000,   0.00000000,   0.28474720 ] # c*
natom:   8      
lattice:
- [     3.511887000000000,     0.000000000000000,     0.000000000000000 ] # a
- [     0.000000000000000,     3.511887000000000,     0.000000000000000 ] # b
- [     0.000000000000000,     0.000000000000000,     3.511887000000000 ] # c
points:
- symbol: C  # 1
  coordinates: [  0.756696000000000,  0.756696000000000,  0.756696000000000 ]
  mass: 12.010700
- symbol: C  # 2
  coordinates: [  0.006695000000000,  0.506696000000000,  0.006695000000000 ]
  mass: 12.010700
- symbol: C  # 3
  coordinates: [  0.506696000000000,  0.506696000000000,  0.506696000000000 ]
  mass: 12.010700
- symbol: C  # 4
  coordinates: [  0.006695000000000,  0.006695000000000,  0.506696000000000 ]
  mass: 12.010700
- symbol: C  # 5
  coordinates: [  0.506696000000000,  0.006695000000000,  0.006695000000000 ]
  mass: 12.010700
- symbol: C  # 6
  coordinates: [  0.756696000000000,  0.256696000000000,  0.256696000000000 ]
  mass: 12.010700
- symbol: C  # 7
  coordinates: [  0.256696000000000,  0.256696000000000,  0.756696000000000 ]
  mass: 12.010700
- symbol: C  # 8
  coordinates: [  0.256696000000000,  0.756696000000000,  0.256696000000000 ]
  mass: 12.010700

phonon:
- q-position: [    0.0104167,    0.0104167,    0.0104167 ]
  distance_from_gamma:  0.005137465
  weight: 8    
  band:
  - # 1
    frequency:     0.6087393541
  - # 2
    frequency:     0.6087393541
  - # 3
    frequency:     0.9745447662
  - # 4
    frequency:    23.6167483567
  - # 5
    frequency:    23.6167483567
  - # 6
    frequency:    23.6167483567
  - # 7
    frequency:    23.6317815131
  - # 8
    frequency:    23.6317815131
  - # 9
    frequency:    23.6317815131
  - # 10
    frequency:    34.3594962600
  - # 11
    frequency:    34.3594962600
  - # 12
    frequency:    34.3594962600
  - # 13
    frequency:    34.3678639644
  - # 14
    frequency:    34.3678639644
  - # 15
    frequency:    34.3678639644
  - # 16
    frequency:    37.2678782022
  - # 17
    frequency:    37.2678782022
  - # 18
    frequency:    37.2678782022
  - # 19
    frequency:    37.6187738530
  - # 20
    frequency:    37.6187738530
  - # 21
    frequency:    37.6187738530
  - # 22
    frequency:    40.8982735148
  - # 23
    frequency:    40.8982735148
  - # 24
    frequency:    40.9017689996

- q-position: [    0.0312500,    0.0104167,    0.0104167 ]
  distance_from_gamma:  0.009837496
  weight: 24   
  band:
  - # 1
    frequency:     1.1868360211
  - # 2
    frequency:     1.2240562516
  - # 3
    frequency:     1.8134192456
  - # 4
    frequency:    23.5882810491
  - # 5
    frequency:    23.6033175756
  - # 6
    frequency:    23.6281331797
  - # 7
    frequency:    23.6281331797
  - # 8
    frequency:    23.6731516669
  - # 9
    frequency:    23.6731516669
  - # 10
    frequency:    34.3373781775
  - # 11
    frequency:    34.3373781775
  - # 12
    frequency:    34.3624664540
  - # 13
    frequency:    34.3624664540
  - # 14
    frequency:    34.3769552905
  - # 15
    frequency:    34.3858318577
  - # 16
    frequency:    36.8990549405
  - # 17
    frequency:    37.2621403127
  - # 18
    frequency:    37.2621403127
  - # 19
    frequency:    37.6116584961
  - # 20
    frequency:    37.6116584961
  - # 21
    frequency:    37.9511794047
  - # 22
    frequency:    40.8866067872
  - # 23
    frequency:    40.8874067480
  - # 24
    frequency:    40.9048869844

- q-position: [    0.0520833,    0.0104167,    0.0104167 ]
  distance_from_gamma:  0.015412394
  weight: 24   
  band:
  - # 1
    frequency:     1.9063615214
  - # 2
    frequency:     1.9363478577
  - # 3
    frequency:     2.7935399608
  - # 4
    frequency:    23.5314729338
  - # 5
    frequency:    23.5465152480
  - # 6
    frequency:    23.6657877331
  - # 7
    frequency:    23.6657877331
  - # 8
    frequency:    23.7405517408
  - # 9
    frequency:    23.7405517408
  - # 10
    frequency:    34.3013940871
  - # 11
    frequency:    34.3013940871
  - # 12
    frequency:    34.3432143276
  - # 13
    frequency:    34.3432143276
  - # 14
    frequency:    34.4115316074
  - # 15
    frequency:    34.4215830755
  - # 16
    frequency:    36.5118974038
  - # 17
    frequency:    37.2508652065
  - # 18
    frequency:    37.2508652065
  - # 19
    frequency:    37.5976371006
  - # 20
    frequency:    37.5976371006
  - # 21
    frequency:    38.2656916207
  - # 22
    frequency:    40.8633026130
  - # 23
    frequency:    40.8641906450
  - # 24
    frequency:    40.9125754339

- q-position: [    0.0729167,    0.0104167,    0.0104167 ]
  distance_from_gamma:  0.021182310
  weight: 24   
  band:
  - # 1
    frequency:     2.6448110927
  - # 2
    frequency:     2.6674379199
  - # 3
    frequency:     3.8109479322
  - # 4
    frequency:    23.4465701971
  - # 5
    frequency:    23.4616188786
  - # 6
    frequency:    23.7293365724
  - # 7
    frequency:    23.7293365724
  - # 8
    frequency:    23.8334527761
  - # 9
    frequency:    23.8334527761
  - # 10
    frequency:    34.2513561335
  - # 11
    frequency:    34.2513561335
  - # 12
    frequency:    34.3099056573
  - # 13
    frequency:    34.3099056573
  - # 14
    frequency:    34.4623987214
  - # 15
    frequency:    34.4747562100
  - # 16
    frequency:    36.1067681490
  - # 17
    frequency:    37.2344433456
  - # 18
    frequency:    37.2344433456
  - # 19
    frequency:    37.5771199026
  - # 20
    frequency:    37.5771199026
  - # 21
    frequency:    38.5624790297
  - # 22
    frequency:    40.8284196405
  - # 23
    frequency:    40.8293309730
  - # 24
    frequency:    40.9240690127

- q-position: [    0.0937500,    0.0104167,    0.0104167 ]
  distance_from_gamma:  0.027022609
  weight: 24   
  band:
  - # 1
    frequency:     3.3860830667
  - # 2
    frequency:     3.4033231188
  - # 3
    frequency:     4.8409724315
  - # 4
    frequency:    23.3339259957
  - # 5
    frequency:    23.3489790249
  - # 6
    frequency:    23.8181809187
  - # 7
    frequency:    23.8181809187
  - # 8
    frequency:    23.9511119994
  - # 9
    frequency:    23.9511119994
  - # 10
    frequency:    34.1870143544
  - # 11
    frequency:    34.1870143544
  - # 12
    frequency:    34.2622562319
  - # 13
    frequency:    34.2622562319
  - # 14
    frequency:    34.5276054064
  - # 15
    frequency:    34.5448275415
  - # 16
    frequency:    35.6849439028
  - # 17
    frequency:    37.2134336360
  - # 18
    frequency:    37.2134336360
  - # 19
    frequency:    37.5507012168
  - # 20
    frequency:    37.5507012168
  - # 21
    frequency:    38.8417918112
  - # 22
    frequency:    40.7820460566
  - # 23
    frequency:    40.7829659983
  - # 24
    frequency:    40.9391416165

- q-position: [    0.1145833,    0.0104167,    0.0104167 ]
  distance_from_gamma:  0.032895826
  weight: 24   
  band:
  - # 1
    frequency:     4.1261151053
  - # 2
    frequency:     4.1393552451
  - # 3
    frequency:     5.8745631356
  - # 4
    frequency:    23.1939834584
  - # 5
    frequency:    23.2090356236
  - # 6
    frequency:    23.9315052605
  - # 7
    frequency:    23.9315052605
  - # 8
    frequency:    24.0925827020
  - # 9
    frequency:    24.0925827020
  - # 10
    frequency:    34.1080916450
  - # 11
    frequency:    34.1080916450
  - # 12
    frequency:    34.1999243452
  - # 13
    frequency:    34.1999243452
  - # 14
    frequency:    34.6000685659
  - # 15
    frequency:    34.6311306959
  - # 16
    frequency:    35.2526956624
  - # 17
    frequency:    37.1885326115
  - # 18
    frequency:    37.1885326115
  - # 19
    frequency:    37.5191342513
  - # 20
    frequency:    37.5191342513
  - # 21
    frequency:    39.1039089697
  - # 22
    frequency:    40.7242998380
  - # 23
    frequency:    40.7252231058
  - # 24
    frequency:    40.9575515393

- q-position: [    0.1354167,    0.0104167,    0.0104167 ]
  distance_from_gamma:  0.038787009
  weight: 24   
  band:
  - # 1
    frequency:     4.8631207562
  - # 2
    frequency:     4.8732573227
  - # 3
    frequency:     6.9073405201
  - # 4
    frequency:    23.0272564018
  - # 5
    frequency:    23.0422988945
  - # 6
    frequency:    24.0682855749
  - # 7
    frequency:    24.0682855749
  - # 8
    frequency:    24.2567253910
  - # 9
    frequency:    24.2567253910
  - # 10
    frequency:    34.0143254153
  - # 11
    frequency:    34.0143254153
  - # 12
    frequency:    34.1225466327
  - # 13
    frequency:    34.1225466327
  - # 14
    frequency:    34.6057514116
  - # 15
    frequency:    34.7328793769
  - # 16
    frequency:    34.8831403661
  - # 17
    frequency:    37.1605359145
  - # 18
    frequency:    37.1605359145
  - # 19
    frequency:    37.4832981026
  - # 20
    frequency:    37.4832981026
  - # 21
    frequency:    39.3491318746
  - # 22
    frequency:    40.6553290763
  - # 23
    frequency:    40.6562531838
  - # 24
    frequency:    40.9790094182

- q-position: [    0.1562500,    0.0104167,    0.0104167 ]
  distance_from_gamma:  0.044689054
  weight: 24   
  band:
  - # 1
    frequency:     5.5959472935
  - # 2
    frequency:     5.6035741034
  - # 3
    frequency:     7.9366907952
  - # 4
    frequency:    22.8343097527
  - # 5
    frequency:    22.8493299574
  - # 6
    frequency:    24.2272981178
  - # 7
    frequency:    24.2272981178
  - # 8
    frequency:    24.4422190843
  - # 9
    frequency:    24.4422190843
  - # 10
    frequency:    33.9055152338
  - # 11
    frequency:    33.9055152338
  - # 12
    frequency:    34.0297826498
  - # 13
    frequency:    34.0297826498
  - # 14
    frequency:    34.2396359362
  - # 15
    frequency:    34.8491910955
  - # 16
    frequency:    34.8802951558
  - # 17
    frequency:    37.1302947664
  - # 18
    frequency:    37.1302947664
  - # 19
    frequency:    37.4441582170
  - # 20
    frequency:    37.4441582170
  - # 21
    frequency:    39.5777820863
  - # 22
    frequency:    40.5753123690
  - # 23
    frequency:    40.5762359157
  - # 24
    frequency:    41.0031757722

- q-position: [    0.1770833,    0.0104167,    0.0104167 ]
  distance_from_gamma:  0.050598160
  weight: 24   
  band:
  - # 1
    frequency:     6.3236708973
  - # 2
    frequency:     6.3291972617
  - # 3
    frequency:     8.9607871858
  - # 4
    frequency:    22.6157413706
  - # 5
    frequency:    22.6307228332
  - # 6
    frequency:    24.4071274107
  - # 7
    frequency:    24.4071274107
  - # 8
    frequency:    24.6475713915
  - # 9
    frequency:    24.6475713915
  - # 10
    frequency:    33.7503872046
  - # 11
    frequency:    33.7815741314
  - # 12
    frequency:    33.7815741314
  - # 13
    frequency:    33.9213661193
  - # 14
    frequency:    33.9213661193
  - # 15
    frequency:    34.9791101113
  - # 16
    frequency:    34.9944379368
  - # 17
    frequency:    37.0986709651
  - # 18
    frequency:    37.0986709651
  - # 19
    frequency:    37.4027225984
  - # 20
    frequency:    37.4027225984
  - # 21
    frequency:    39.7902004522
  - # 22
    frequency:    40.4844592663
  - # 23
    frequency:    40.4853813734
  - # 24
    frequency:    41.0296626908

- q-position: [    0.1979167,    0.0104167,    0.0104167 ]
  distance_from_gamma:  0.056512113
  weight: 24   
  band:
  - # 1
    frequency:     7.0454677473
  - # 2
    frequency:     7.0491869971
  - # 3
    frequency:     9.9782017047
  - # 4
    frequency:    22.3721664663
  - # 5
    frequency:    22.3870890174
  - # 6
    frequency:    24.6061717133
  - # 7
    frequency:    24.6061717133
  - # 8
    frequency:    24.8711257219
  - # 9
    frequency:    24.8711257219
  - # 10
    frequency:    33.2309678474
  - # 11
    frequency:    33.6425810622
  - # 12
    frequency:    33.6425810622
  - # 13
    frequency:    33.7971601469
  - # 14
    frequency:    33.7971601469
  - # 15
    frequency:    35.1216282842
  - # 16
    frequency:    35.1315152330
  - # 17
    frequency:    37.0664944197
  - # 18
    frequency:    37.0664944197
  - # 19
    frequency:    37.3599970128
  - # 20
    frequency:    37.3599970128
  - # 21
    frequency:    39.9867467715
  - # 22
    frequency:    40.3830107611
  - # 23
    frequency:    40.3839308651
  - # 24
    frequency:    41.0580366588

- q-position: [    0.2187500,    0.0104167,    0.0104167 ]
  distance_from_gamma:  0.062429534
  weight: 24   
  band:
  - # 1
    frequency:     7.7605650086
  - # 2
    frequency:     7.7626949288
  - # 3
    frequency:    10.9877317507
  - # 4
    frequency:    22.1042052705
  - # 5
    frequency:    22.1190452706
  - # 6
    frequency:    24.8226438170
  - # 7
    frequency:    24.8226438170
  - # 8
    frequency:    25.1110635457
  - # 9
    frequency:    25.1110635457
  - # 10
    frequency:    32.6889378889
  - # 11
    frequency:    33.4888326445
  - # 12
    frequency:    33.4888326445
  - # 13
    frequency:    33.6572135830
  - # 14
    frequency:    33.6572135830
  - # 15
    frequency:    35.2757030709
  - # 16
    frequency:    35.2828616876
  - # 17
    frequency:    37.0345270623
  - # 18
    frequency:    37.0345270623
  - # 19
    frequency:    37.3169430588
  - # 20
    frequency:    37.3169430588
  - # 21
    frequency:    40.1677997640
  - # 22
    frequency:    40.2712398100
  - # 23
    frequency:    40.2721575935
  - # 24
    frequency:    41.0878218975

- q-position: [    0.2395833,    0.0104167,    0.0104167 ]
  distance_from_gamma:  0.068349524
  weight: 24   
  band:
  - # 1
    frequency:     8.4682197124
  - # 2
    frequency:     8.4689272320
  - # 3
    frequency:    11.9883154800
  - # 4
    frequency:    21.8124741161
  - # 5
    frequency:    21.8272047890
  - # 6
    frequency:    25.0545643516
  - # 7
    frequency:    25.0545643516
  - # 8
    frequency:    25.3653989947
  - # 9
    frequency:    25.3653989947
  - # 10
    frequency:    32.1258775921
  - # 11
    frequency:    33.3208938705
  - # 12
    frequency:    33.3208938705
  - # 13
    frequency:    33.5018165116
  - # 14
    frequency:    33.5018165116
  - # 15
    frequency:    35.4402723895
  - # 16
    frequency:    35.4457933595
  - # 17
    frequency:    37.0034360855
  - # 18
    frequency:    37.0034360855
  - # 19
    frequency:    37.2744429317
  - # 20
    frequency:    37.2744429317
  - # 21
    frequency:    40.1494518700
  - # 22
    frequency:    40.1503672573
  - # 23
    frequency:    40.3337572034
  - # 24
    frequency:    41.1185040228

- q-position: [    0.2604167,    0.0104167,    0.0104167 ]
  distance_from_gamma:  0.074271467
  weight: 24   
  band:
  - # 1
    frequency:     9.1671256582
  - # 2
    frequency:     9.1677088330
  - # 3
    frequency:    12.9789876499
  - # 4
    frequency:    21.4975797223
  - # 5
    frequency:    21.5121715429
  - # 6
    frequency:    25.2997438105
  - # 7
    frequency:    25.2997438105
  - # 8
    frequency:    25.6319620678
  - # 9
    frequency:    25.6319620678
  - # 10
    frequency:    31.5423127220
  - # 11
    frequency:    33.1396499788
  - # 12
    frequency:    33.1396499788
  - # 13
    frequency:    33.3315548138
  - # 14
    frequency:    33.3315548138
  - # 15
    frequency:    35.6142664514
  - # 16
    frequency:    35.6186955590
  - # 17
    frequency:    36.9737780106
  - # 18
    frequency:    36.9737780106
  - # 19
    frequency:    37.2332738898
  - # 20
    frequency:    37.2332738898
  - # 21
    frequency:    40.0179854345
  - # 22
    frequency:    40.0188986232
  - # 23
    frequency:    40.4850361347
  - # 24
    frequency:    41.1495339180

- q-position: [    0.2812500,    0.0104167,    0.0104167 ]
  distance_from_gamma:  0.080194932
  weight: 24   
  band:
  - # 1
    frequency:     9.8565572286
  - # 2
    frequency:     9.8583243737
  - # 3
    frequency:    13.9588553936
  - # 4
    frequency:    21.1601162336
  - # 5
    frequency:    21.1745373409
  - # 6
    frequency:    25.5557479593
  - # 7
    frequency:    25.5557479593
  - # 8
    frequency:    25.9083650446
  - # 9
    frequency:    25.9083650446
  - # 10
    frequency:    30.9384807168
  - # 11
    frequency:    32.9463650049
  - # 12
    frequency:    32.9463650049
  - # 13
    frequency:    33.1473669362
  - # 14
    frequency:    33.1473669362
  - # 15
    frequency:    35.7966168977
  - # 16
    frequency:    35.8002670905
  - # 17
    frequency:    36.9459934622
  - # 18
    frequency:    36.9459934622
  - # 19
    frequency:    37.1940939787
  - # 20
    frequency:    37.1940939787
  - # 21
    frequency:    39.8772125526
  - # 22
    frequency:    39.8781240695
  - # 23
    frequency:    40.6220731172
  - # 24
    frequency:    41.1803317496

- q-position: [    0.3020833,    0.0104167,    0.0104167 ]
  distance_from_gamma:  0.086119603
  weight: 24   
  band:
  - # 1
    frequency:    10.5365084306
  - # 2
    frequency:    10.5393708857
  - # 3
    frequency:    14.9270844346
  - # 4
    frequency:    20.8006644530
  - # 5
    frequency:    20.8148810639
  - # 6
    frequency:    25.8198389121
  - # 7
    frequency:    25.8198389121
  - # 8
    frequency:    26.1919440152
  - # 9
    frequency:    26.1919440152
  - # 10
    frequency:    30.3145268630
  - # 11
    frequency:    32.7427565886
  - # 12
    frequency:    32.7427565886
  - # 13
    frequency:    32.9506103281
  - # 14
    frequency:    32.9506103281
  - # 15
    frequency:    35.9862637008
  - # 16
    frequency:    35.9893322673
  - # 17
    frequency:    36.9204111331
  - # 18
    frequency:    36.9204111331
  - # 19
    frequency:    37.1574388683
  - # 20
    frequency:    37.1574388683
  - # 21
    frequency:    39.7275393142
  - # 22
    frequency:    39.7284500913
  - # 23
    frequency:    40.7453244513
  - # 24
    frequency:    41.2102910629

- q-position: [    0.3229167,    0.0104167,    0.0104167 ]
  distance_from_gamma:  0.092045249
  weight: 24   
  band:
  - # 1
    frequency:    11.2062818867
  - # 2
    frequency:    11.2101642513
  - # 3
    frequency:    15.8828910345
  - # 4
    frequency:    20.4197926934
  - # 5
    frequency:    20.4337694967
  - # 6
    frequency:    26.0888805675
  - # 7
    frequency:    26.0888805675
  - # 8
    frequency:    26.4796631540
  - # 9
    frequency:    26.4796631540
  - # 10
    frequency:    29.6705709188
  - # 11
    frequency:    32.5311014934
  - # 12
    frequency:    32.5311014934
  - # 13
    frequency:    32.7431505903
  - # 14
    frequency:    32.7431505903
  - # 15
    frequency:    36.1821603129
  - # 16
    frequency:    36.1847807312
  - # 17
    frequency:    36.8972585685
  - # 18
    frequency:    36.8972585685
  - # 19
    frequency:    37.1237281407
  - # 20
    frequency:    37.1237281407
  - # 21
    frequency:    39.5694062834
  - # 22
    frequency:    39.5703177503
  - # 23
    frequency:    40.8552663515
  - # 24
    frequency:    41.2387829015

- q-position: [    0.3437500,    0.0104167,    0.0104167 ]
  distance_from_gamma:  0.097971692
  weight: 24   
  band:
  - # 1
    frequency:    11.8651944363
  - # 2
    frequency:    11.8700311513
  - # 3
    frequency:    16.8255372097
  - # 4
    frequency:    20.0180587189
  - # 5
    frequency:    20.0317592356
  - # 6
    frequency:    26.3591920711
  - # 7
    frequency:    26.3591920711
  - # 8
    frequency:    26.7679628418
  - # 9
    frequency:    26.7679628418
  - # 10
    frequency:    29.0067345458
  - # 11
    frequency:    32.3143920194
  - # 12
    frequency:    32.3143920194
  - # 13
    frequency:    32.5274935995
  - # 14
    frequency:    32.5274935995
  - # 15
    frequency:    36.3832775103
  - # 16
    frequency:    36.3855451512
  - # 17
    frequency:    36.8766771611
  - # 18
    frequency:    36.8766771611
  - # 19
    frequency:    37.0932783886
  - # 20
    frequency:    37.0932783886
  - # 21
    frequency:    39.4032888620
  - # 22
    frequency:    39.4042030562
  - # 23
    frequency:    40.9523950346
  - # 24
    frequency:    41.2651598988

- q-position: [    0.3645833,    0.0104167,    0.0104167 ]
  distance_from_gamma:  0.103898796
  weight: 24   
  band:
  - # 1
    frequency:    12.5125760488
  - # 2
    frequency:    12.5183089100
  - # 3
    frequency:    17.7543278573
  - # 4
    frequency:    19.5960123281
  - # 5
    frequency:    19.6093992269
  - # 6
    frequency:    26.6263271169
  - # 7
    frequency:    26.6263271169
  - # 8
    frequency:    27.0525238204
  - # 9
    frequency:    27.0525238204
  - # 10
    frequency:    28.3231544263
  - # 11
    frequency:    32.0965690342
  - # 12
    frequency:    32.0965690342
  - # 13
    frequency:    32.3069903073
  - # 14
    frequency:    32.3069903073
  - # 15
    frequency:    36.5886063091
  - # 16
    frequency:    36.5905922902
  - # 17
    frequency:    36.8587390320
  - # 18
    frequency:    36.8587390320
  - # 19
    frequency:    37.0663201493
  - # 20
    frequency:    37.0663201493
  - # 21
    frequency:    39.2296975679
  - # 22
    frequency:    39.2306172619
  - # 23
    frequency:    41.0372266932
  - # 24
    frequency:    41.2887602924

- q-position: [    0.3854167,    0.0104167,    0.0104167 ]
  distance_from_gamma:  0.109826454
  weight: 24   
  band:
  - # 1
    frequency:    13.1477692273
  - # 2
    frequency:    13.1543455421
  - # 3
    frequency:    18.6686090082
  - # 4
    frequency:    19.1541982287
  - # 5
    frequency:    19.1672335891
  - # 6
    frequency:    26.8847539937
  - # 7
    frequency:    26.8847539937
  - # 8
    frequency:    27.3279107914
  - # 9
    frequency:    27.3279107914
  - # 10
    frequency:    27.6199893851
  - # 11
    frequency:    31.8828572666
  - # 12
    frequency:    31.8828572666
  - # 13
    frequency:    32.0861549833
  - # 14
    frequency:    32.0861549833
  - # 15
    frequency:    36.7971602481
  - # 16
    frequency:    36.7989193983
  - # 17
    frequency:    36.8434640453
  - # 18
    frequency:    36.8434640453
  - # 19
    frequency:    37.0430159244
  - # 20
    frequency:    37.0430159244
  - # 21
    frequency:    39.0491782122
  - # 22
    frequency:    39.0501070586
  - # 23
    frequency:    41.1102973295
  - # 24
    frequency:    41.3089118192

- q-position: [    0.4062500,    0.0104167,    0.0104167 ]
  distance_from_gamma:  0.115754580
  weight: 24   
  band:
  - # 1
    frequency:    13.7701286923
  - # 2
    frequency:    13.7774998910
  - # 3
    frequency:    18.6931589405
  - # 4
    frequency:    18.7058044592
  - # 5
    frequency:    19.5677667424
  - # 6
    frequency:    26.8974247138
  - # 7
    frequency:    27.1274244923
  - # 8
    frequency:    27.1274244923
  - # 9
    frequency:    27.5870627601
  - # 10
    frequency:    27.5870627601
  - # 11
    frequency:    31.6802036818
  - # 12
    frequency:    31.6802036818
  - # 13
    frequency:    31.8711442529
  - # 14
    frequency:    31.8711442529
  - # 15
    frequency:    36.8308358457
  - # 16
    frequency:    36.8308358457
  - # 17
    frequency:    37.0079772557
  - # 18
    frequency:    37.0095529399
  - # 19
    frequency:    37.0234771161
  - # 20
    frequency:    37.0234771161
  - # 21
    frequency:    38.8623119602
  - # 22
    frequency:    38.8632546573
  - # 23
    frequency:    41.1721624231
  - # 24
    frequency:    41.3249354525

- q-position: [    0.4270833,    0.0104167,    0.0104167 ]
  distance_from_gamma:  0.121683107
  weight: 24   
  band:
  - # 1
    frequency:    14.3790212086
  - # 2
    frequency:    14.3871417843
  - # 3
    frequency:    18.2134375476
  - # 4
    frequency:    18.2256546853
  - # 5
    frequency:    20.4512264814
  - # 6
    frequency:    26.1556750627
  - # 7
    frequency:    27.3452853009
  - # 8
    frequency:    27.3452853009
  - # 9
    frequency:    27.8206551133
  - # 10
    frequency:    27.8206551133
  - # 11
    frequency:    31.4977162977
  - # 12
    frequency:    31.4977162977
  - # 13
    frequency:    31.6704233140
  - # 14
    frequency:    31.6704233140
  - # 15
    frequency:    36.8208163401
  - # 16
    frequency:    36.8208163401
  - # 17
    frequency:    37.0077784423
  - # 18
    frequency:    37.0077784423
  - # 19
    frequency:    37.2201212477
  - # 20
    frequency:    37.2215484218
  - # 21
    frequency:    38.6697152670
  - # 22
    frequency:    38.6706777465
  - # 23
    frequency:    41.2233964100
  - # 24
    frequency:    41.3361489479

- q-position: [    0.4479167,    0.0104167,    0.0104167 ]
  distance_from_gamma:  0.127611979
  weight: 24   
  band:
  - # 1
    frequency:    14.9738254554
  - # 2
    frequency:    14.9826521466
  - # 3
    frequency:    17.7155801860
  - # 4
    frequency:    17.7273302517
  - # 5
    frequency:    21.3184524750
  - # 6
    frequency:    25.3949865307
  - # 7
    frequency:    27.5269764312
  - # 8
    frequency:    27.5269764312
  - # 9
    frequency:    28.0165700960
  - # 10
    frequency:    28.0165700960
  - # 11
    frequency:    31.3467029102
  - # 12
    frequency:    31.3467029102
  - # 13
    frequency:    31.4955399807
  - # 14
    frequency:    31.4955399807
  - # 15
    frequency:    36.8133583667
  - # 16
    frequency:    36.8133583667
  - # 17
    frequency:    36.9959691144
  - # 18
    frequency:    36.9959691144
  - # 19
    frequency:    37.4326835488
  - # 20
    frequency:    37.4339907736
  - # 21
    frequency:    38.4720396757
  - # 22
    frequency:    38.4730293183
  - # 23
    frequency:    41.2645919523
  - # 24
    frequency:    41.3418701704

- q-position: [    0.4687500,    0.0104167,    0.0104167 ]
  distance_from_gamma:  0.133541149
  weight: 24   
  band:
  - # 1
    frequency:    15.5539318646
  - # 2
    frequency:    15.5634230234
  - # 3
    frequency:    17.2001382046
  - # 4
    frequency:    17.2113823770
  - # 5
    frequency:    22.1689473667
  - # 6
    frequency:    24.6156382651
  - # 7
    frequency:    27.6593355811
  - # 8
    frequency:    27.6593355811
  - # 9
    frequency:    28.1602052219
  - # 10
    frequency:    28.1602052219
  - # 11
    frequency:    31.2393103621
  - # 12
    frequency:    31.2393103621
  - # 13
    frequency:    31.3616580453
  - # 14
    frequency:    31.3616580453
  - # 15
    frequency:    36.8084163944
  - # 16
    frequency:    36.8084163944
  - # 17
    frequency:    36.9880806980
  - # 18
    frequency:    36.9880806980
  - # 19
    frequency:    37.6447841897
  - # 20
    frequency:    37.6459950083
  - # 21
    frequency:    38.2699714765
  - # 22
    frequency:    38.2709973610
  - # 23
    frequency:    41.2963589794
  - # 24
    frequency:    41.3414201805

- q-position: [    0.4895833,    0.0104167,    0.0104167 ]
  distance_from_gamma:  0.139470579
  weight: 24   
  band:
  - # 1
    frequency:    16.1187423650
  - # 2
    frequency:    16.1288574692
  - # 3
    frequency:    16.6676699767
  - # 4
    frequency:    16.6783692586
  - # 5
    frequency:    23.0022517603
  - # 6
    frequency:    23.8179437343
  - # 7
    frequency:    27.7296254158
  - # 8
    frequency:    27.7296254158
  - # 9
    frequency:    28.2368894233
  - # 10
    frequency:    28.2368894233
  - # 11
    frequency:    31.1845243483
  - # 12
    frequency:    31.1845243483
  - # 13
    frequency:    31.2869032861
  - # 14
    frequency:    31.2869032861
  - # 15
    frequency:    36.8059550345
  - # 16
    frequency:    36.8059550345
  - # 17
    frequency:    36.9841320580
  - # 18
    frequency:    36.9841320580
  - # 19
    frequency:    37.8555731031
  - # 20
    frequency:    37.8567070187
  - # 21
    frequency:    38.0642312221
  - # 22
    frequency:    38.0653044173
  - # 23
    frequency:    41.3193234846
  - # 24
    frequency:    41.3341260628

- q-position: [    0.0312500,    0.0312500,    0.0104167 ]
  distance_from_gamma:  0.012929003
  weight: 24   
  band:
  - # 1
    frequency:     1.4838320844
  - # 2
    frequency:     1.6130921763
  - # 3
    frequency:     2.4260726947
  - # 4
    frequency:    23.5995948622
  - # 5
    frequency:    23.5995948622
  - # 6
    frequency:    23.6094073243
  - # 7
    frequency:    23.6446464258
  - # 8
    frequency:    23.6446464258
  - # 9
    frequency:    23.7442040011
  - # 10
    frequency:    34.2994631836
  - # 11
    frequency:    34.3527712233
  - # 12
    frequency:    34.3527712233
  - # 13
    frequency:    34.3738072292
  - # 14
    frequency:    34.3805946318
  - # 15
    frequency:    34.3805946318
  - # 16
    frequency:    36.8986907124
  - # 17
    frequency:    36.8986907124
  - # 18
    frequency:    37.2479885071
  - # 19
    frequency:    37.6120948695
  - # 20
    frequency:    37.9407936848
  - # 21
    frequency:    37.9407936848
  - # 22
    frequency:    40.8752964101
  - # 23
    frequency:    40.8812098451
  - # 24
    frequency:    40.9030231075

- q-position: [    0.0520833,    0.0312500,    0.0104167 ]
  distance_from_gamma:  0.017547783
  weight: 48   
  band:
  - # 1
    frequency:     2.0489864790
  - # 2
    frequency:     2.2031202862
  - # 3
    frequency:     3.2571853863
  - # 4
    frequency:    23.5426474283
  - # 5
    frequency:    23.5877628810
  - # 6
    frequency:    23.6169909503
  - # 7
    frequency:    23.6370814119
  - # 8
    frequency:    23.7119883974
  - # 9
    frequency:    23.8408264893
  - # 10
    frequency:    34.2486860191
  - # 11
    frequency:    34.3119733377
  - # 12
    frequency:    34.3624925629
  - # 13
    frequency:    34.3711500663
  - # 14
    frequency:    34.3826697372
  - # 15
    frequency:    34.4166231483
  - # 16
    frequency:    36.5184649735
  - # 17
    frequency:    36.8980035923
  - # 18
    frequency:    37.2211145952
  - # 19
    frequency:    37.6120277718
  - # 20
    frequency:    37.9202442924
  - # 21
    frequency:    38.2531666537
  - # 22
    frequency:    40.8521978395
  - # 23
    frequency:    40.8606137734
  - # 24
    frequency:    40.9079744765

- q-position: [    0.0729167,    0.0312500,    0.0104167 ]
  distance_from_gamma:  0.022783175
  weight: 48   
  band: