       N       E                     dE             d eps       ncg     rms          rms(c)
DAV:   1    -0.770080123510E+02   -0.77008E+02   -0.12064E+05  3344   0.998E+02
DAV:   2    -0.128341016308E+04   -0.12064E+04   -0.11545E+04  4000   0.253E+02
DAV:   3    -0.133644317390E+04   -0.53033E+02   -0.52461E+02  4464   0.491E+01
DAV:   4    -0.133750993595E+04   -0.10668E+01   -0.10632E+01  4512   0.710E+00
DAV:   5    -0.133754237465E+04   -0.32439E-01   -0.32410E-01  4432   0.122E+00    0.127E+02
RMM:   6    -0.779474294769E+03    0.55807E+03   -0.33990E+02  3328   0.341E+01    0.678E+01
RMM:   7    -0.579417157638E+03    0.20006E+03   -0.49152E+02  3328   0.402E+01    0.827E+00
RMM:   8    -0.580428158087E+03   -0.10110E+01   -0.26703E+00  3328   0.352E+00    0.252E+00
RMM:   9    -0.580558668173E+03   -0.13051E+00   -0.44114E-01  3328   0.152E+00    0.371E-01
RMM:  10    -0.580562591058E+03   -0.39229E-02   -0.29225E-02  3328   0.369E-01    0.209E-01
RMM:  11    -0.580562863056E+03   -0.27200E-03   -0.11489E-03  3328   0.848E-02    0.138E-01
RMM:  12    -0.580562534482E+03    0.32857E-03   -0.86123E-04  3328   0.642E-02    0.190E-02
RMM:  13    -0.580562530027E+03    0.44555E-05   -0.41148E-05  3328   0.136E-02    0.256E-03
RMM:  14    -0.580562529986E+03    0.40701E-07   -0.10547E-06  2304   0.235E-03
   1 F= -.41835827E+03 E0= -.41835827E+03  d E =0.000000E+00  mag=     0.0000
 Linear response reoptimize wavefunctions
DAV:   1    -0.580562532023E+03   -0.16220E+03   -0.51250E-07  3744   0.175E-03
DAV:   2    -0.580562532024E+03   -0.14334E-08   -0.13743E-08  3152   0.217E-04
DAV:   3    -0.580562532024E+03   -0.25238E-09   -0.55693E-10  2928   0.568E-05
 Linear response DOF=            1
 Linear response progress:
  Degree of freedom:   1/  1
       N       E                     dE             d eps       ncg     rms          rms(c)
RMM:   1    -0.147926512200E+00   -0.14793E+00    0.19043E-02 14067   0.641E-01
RMM:   2    -0.126200461320E+00    0.21726E-01   -0.65743E-03  8244   0.146E-01    0.195E-01
RMM:   3    -0.125956853130E+00    0.24361E-03   -0.95092E-04  8473   0.458E-02    0.979E-02
RMM:   4    -0.126278434826E+00   -0.32158E-03   -0.25935E-04  8515   0.252E-02    0.289E-02
RMM:   5    -0.126387029408E+00   -0.10859E-03   -0.21642E-05  8788   0.730E-03    0.697E-03
RMM:   6    -0.126369134471E+00    0.17895E-04   -0.50645E-06  8951   0.190E-03    0.139E-03
RMM:   7    -0.126362714427E+00    0.64200E-05   -0.79143E-06  9512   0.552E-04    0.387E-04
RMM:   8    -0.126361822075E+00    0.89235E-06   -0.84223E-06 10309   0.316E-04    0.128E-04
 Linear response finished
