# Thermal properties / unit cell (natom)

unit:
  temperature:   K
  free_energy:   kJ/mol
  entropy:       J/K/mol
  heat_capacity: J/K/mol

natom: 8    
cutoff_frequency: 0.00000
num_modes: 2654208
num_integrated_modes: 2654208

zero_point_energy:     145.4954645

thermal_properties:
- temperature:         0.0000000
  free_energy:       145.4954645
  entropy:             0.0000000
  heat_capacity:       0.0000000
  energy:            145.4954645

- temperature:        10.0000000
  free_energy:       145.4954636
  entropy:             0.0004064
  heat_capacity:       0.0013542
  energy:            145.4954677

- temperature:        20.0000000
  free_energy:       145.4954471
  entropy:             0.0035889
  heat_capacity:       0.0109464
  energy:            145.4955189

- temperature:        30.0000000
  free_energy:       145.4953734
  entropy:             0.0123068
  heat_capacity:       0.0373640
  energy:            145.4957426

- temperature:        40.0000000
  free_energy:       145.4951726
  entropy:             0.0295238
  heat_capacity:       0.0900718
  energy:            145.4963536

- temperature:        50.0000000
  free_energy:       145.4947438
  entropy:             0.0584934
  heat_capacity:       0.1802170
  energy:            145.4976685

- temperature:        60.0000000
  free_energy:       145.4939511
  entropy:             0.1029842
  heat_capacity:       0.3222139
  energy:            145.5001302

- temperature:        70.0000000
  free_energy:       145.4926171
  entropy:             0.1676112
  heat_capacity:       0.5355394
  energy:            145.5043499

- temperature:        80.0000000
  free_energy:       145.4905129
  entropy:             0.2580941
  heat_capacity:       0.8447740
  energy:            145.5111604

- temperature:        90.0000000
  free_energy:       145.4873466
  entropy:             0.3812102
  heat_capacity:       1.2769791
  energy:            145.5216555

- temperature:       100.0000000
  free_energy:       145.4827551
  entropy:             0.5444075
  heat_capacity:       1.8577710
  energy:            145.5371958

- temperature:       110.0000000
  free_energy:       145.4762996
  entropy:             0.7552450
  heat_capacity:       2.6080272
  energy:            145.5593765

- temperature:       120.0000000
  free_energy:       145.4674675
  entropy:             1.0208564
  heat_capacity:       3.5422352
  energy:            145.5899703

- temperature:       130.0000000
  free_energy:       145.4556787
  entropy:             1.3475622
  heat_capacity:       4.6684207
  energy:            145.6308618

- temperature:       140.0000000
  free_energy:       145.4402948
  entropy:             1.7406607
  heat_capacity:       5.9890556
  energy:            145.6839873

- temperature:       150.0000000
  free_energy:       145.4206300
  entropy:             2.2043688
  heat_capacity:       7.5023135
  energy:            145.7512853

- temperature:       160.0000000
  free_energy:       145.3959614
  entropy:             2.7418627
  heat_capacity:       9.2032454
  energy:            145.8346594

- temperature:       170.0000000
  free_energy:       145.3655393
  entropy:             3.3553695
  heat_capacity:      11.0846849
  energy:            145.9359521

- temperature:       180.0000000
  free_energy:       145.3285959
  entropy:             4.0462766
  heat_capacity:      13.1378627
  energy:            146.0569257

- temperature:       190.0000000
  free_energy:       145.2843535
  entropy:             4.8152375
  heat_capacity:      15.3527915
  energy:            146.1992486

- temperature:       200.0000000
  free_energy:       145.2320309
  entropy:             5.6622669
  heat_capacity:      17.7185076
  energy:            146.3644842

- temperature:       210.0000000
  free_energy:       145.1708497
  entropy:             6.5868217
  heat_capacity:      20.2232414
  energy:            146.5540822

- temperature:       220.0000000
  free_energy:       145.1000394
  entropy:             7.5878713
  heat_capacity:      22.8545672
  energy:            146.7693711

- temperature:       230.0000000
  free_energy:       145.0188421
  entropy:             8.6639583
  heat_capacity:      25.5995584
  energy:            147.0115525

- temperature:       240.0000000
  free_energy:       144.9265162
  entropy:             9.8132533
  heat_capacity:      28.4449561
  energy:            147.2816970

- temperature:       250.0000000
  free_energy:       144.8223401
  entropy:            11.0336059
  heat_capacity:      31.3773486
  energy:            147.5807416

- temperature:       260.0000000
  free_energy:       144.7056152
  entropy:            12.3225925
  heat_capacity:      34.3833540
  energy:            147.9094893

- temperature:       270.0000000
  free_energy:       144.5756683
  entropy:            13.6775622
  heat_capacity:      37.4497968
  energy:            148.2686101

- temperature:       280.0000000
  free_energy:       144.4318535
  entropy:            15.0956802
  heat_capacity:      40.5638695
  energy:            148.6586439

- temperature:       290.0000000
  free_energy:       144.2735541
  entropy:            16.5739692
  heat_capacity:      43.7132736
  energy:            149.0800052

- temperature:       300.0000000
  free_energy:       144.1001838
  entropy:            18.1093480
  heat_capacity:      46.8863364
  energy:            149.5329882

- temperature:       310.0000000
  free_energy:       143.9111874
  entropy:            19.6986671
  heat_capacity:      50.0721011
  energy:            150.0177742

- temperature:       320.0000000
  free_energy:       143.7060413
  entropy:            21.3387415
  heat_capacity:      53.2603922
  energy:            150.5344385

- temperature:       330.0000000
  free_energy:       143.4842540
  entropy:            23.0263793
  heat_capacity:      56.4418561
  energy:            151.0829591

- temperature:       340.0000000
  free_energy:       143.2453657
  entropy:            24.7584080
  heat_capacity:      59.6079809
  energy:            151.6632244

- temperature:       350.0000000
  free_energy:       142.9889483
  entropy:            26.5316962
  heat_capacity:      62.7510973
  energy:            152.2750420

- temperature:       360.0000000
  free_energy:       142.7146045
  entropy:            28.3431730
  heat_capacity:      65.8643644
  energy:            152.9181468

- temperature:       370.0000000
  free_energy:       142.4219675
  entropy:            30.1898433
  heat_capacity:      68.9417436
  energy:            153.5922096

- temperature:       380.0000000
  free_energy:       142.1107000
  entropy:            32.0688009
  heat_capacity:      71.9779620
  energy:            154.2968444

- temperature:       390.0000000
  free_energy:       141.7804933
  entropy:            33.9772387
  heat_capacity:      74.9684711
  energy:            155.0316164

- temperature:       400.0000000
  free_energy:       141.4310660
  entropy:            35.9124562
  heat_capacity:      77.9093987
  energy:            155.7960485

- temperature:       410.0000000
  free_energy:       141.0621635
  entropy:            37.8718650
  heat_capacity:      80.7974998
  energy:            156.5896282

- temperature:       420.0000000
  free_energy:       140.6735563
  entropy:            39.8529931
  heat_capacity:      83.6301056
  energy:            157.4118134

- temperature:       430.0000000
  free_energy:       140.2650391
  entropy:            41.8534860
  heat_capacity:      86.4050732
  energy:            158.2620381

- temperature:       440.0000000
  free_energy:       139.8364295
  entropy:            43.8711083
  heat_capacity:      89.1207357
  energy:            159.1397172

- temperature:       450.0000000
  free_energy:       139.3875669
  entropy:            45.9037423
  heat_capacity:      91.7758546
  energy:            160.0442510

- temperature:       460.0000000
  free_energy:       138.9183113
  entropy:            47.9493875
  heat_capacity:      94.3695744
  energy:            160.9750295

- temperature:       470.0000000
  free_energy:       138.4285421
  entropy:            50.0061573
  heat_capacity:      96.9013800
  energy:            161.9314360

- temperature:       480.0000000
  free_energy:       137.9181570
  entropy:            52.0722771
  heat_capacity:      99.3710568
  energy:            162.9128500

- temperature:       490.0000000
  free_energy:       137.3870710
  entropy:            54.1460801
  heat_capacity:     101.7786535
  energy:            163.9186502

- temperature:       500.0000000
  free_energy:       136.8352150
  entropy:            56.2260041
  heat_capacity:     104.1244488
  energy:            164.9482171

- temperature:       510.0000000
  free_energy:       136.2625354
  entropy:            58.3105871
  heat_capacity:     106.4089198
  energy:            166.0009348

- temperature:       520.0000000
  free_energy:       135.6689923
  entropy:            60.3984632
  heat_capacity:     108.6327145
  energy:            167.0761932

- temperature:       530.0000000
  free_energy:       135.0545594
  entropy:            62.4883586
  heat_capacity:     110.7966259
  energy:            168.1733894

- temperature:       540.0000000
  free_energy:       134.4192224
  entropy:            64.5790866
  heat_capacity:     112.9015694
  energy:            169.2919291

- temperature:       550.0000000
  free_energy:       133.7629786
  entropy:            66.6695438
  heat_capacity:     114.9485625
  energy:            170.4312276

- temperature:       560.0000000
  free_energy:       133.0858358
  entropy:            68.7587055
  heat_capacity:     116.9387060
  energy:            171.5907109

- temperature:       570.0000000
  free_energy:       132.3878119
  entropy:            70.8456214
  heat_capacity:     118.8731685
  energy:            172.7698161

- temperature:       580.0000000
  free_energy:       131.6689338
  entropy:            72.9294119
  heat_capacity:     120.7531716
  energy:            173.9679927

- temperature:       590.0000000
  free_energy:       130.9292368
  entropy:            75.0092634
  heat_capacity:     122.5799774
  energy:            175.1847023

- temperature:       600.0000000
  free_energy:       130.1687642
  entropy:            77.0844251
  heat_capacity:     124.3548775
  energy:            176.4194192

- temperature:       610.0000000
  free_energy:       129.3875663
  entropy:            79.1542047
  heat_capacity:     126.0791832
  energy:            177.6716312

- temperature:       620.0000000
  free_energy:       128.5857002
  entropy:            81.2179653
  heat_capacity:     127.7542175
  energy:            178.9408387

- temperature:       630.0000000
  free_energy:       127.7632290
  entropy:            83.2751217
  heat_capacity:     129.3813070
  energy:            180.2265557

- temperature:       640.0000000
  free_energy:       126.9202215
  entropy:            85.3251373
  heat_capacity:     130.9617764
  energy:            181.5283094

- temperature:       650.0000000
  free_energy:       126.0567517
  entropy:            87.3675208
  heat_capacity:     132.4969430
  energy:            182.8456402

- temperature:       660.0000000
  free_energy:       125.1728981
  entropy:            89.4018236
  heat_capacity:     133.9881117
  energy:            184.1781016

- temperature:       670.0000000
  free_energy:       124.2687435
  entropy:            91.4276366
  heat_capacity:     135.4365716
  energy:            185.5252601

- temperature:       680.0000000
  free_energy:       123.3443749
  entropy:            93.4445883
  heat_capacity:     136.8435926
  energy:            186.8866949

- temperature:       690.0000000
  free_energy:       122.3998824
  entropy:            95.4523414
  heat_capacity:     138.2104227
  energy:            188.2619980

- temperature:       700.0000000
  free_energy:       121.4353597
  entropy:            97.4505911
  heat_capacity:     139.5382858
  energy:            189.6507735

- temperature:       710.0000000
  free_energy:       120.4509032
  entropy:            99.4390628
  heat_capacity:     140.8283802
  energy:            191.0526378

- temperature:       720.0000000
  free_energy:       119.4466119
  entropy:           101.4175100
  heat_capacity:     142.0818768
  energy:            192.4672191

- temperature:       730.0000000
  free_energy:       118.4225872
  entropy:           103.3857123
  heat_capacity:     143.2999184
  energy:            193.8941571

- temperature:       740.0000000
  free_energy:       117.3789324
  entropy:           105.3434737
  heat_capacity:     144.4836187
  energy:            195.3331030

- temperature:       750.0000000
  free_energy:       116.3157531
  entropy:           107.2906208
  heat_capacity:     145.6340620
  energy:            196.7837187

- temperature:       760.0000000
  free_energy:       115.2331559
  entropy:           109.2270013
  heat_capacity:     146.7523027
  energy:            198.2456769

- temperature:       770.0000000
  free_energy:       114.1312494
  entropy:           111.1524824
  heat_capacity:     147.8393652
  energy:            199.7186608

- temperature:       780.0000000
  free_energy:       113.0101430
  entropy:           113.0669495
  heat_capacity:     148.8962440
  energy:            201.2023636

- temperature:       790.0000000
  free_energy:       111.8699474
  entropy:           114.9703049
  heat_capacity:     149.9239038
  energy:            202.6964883

- temperature:       800.0000000
  free_energy:       110.7107742
  entropy:           116.8624665
  heat_capacity:     150.9232799
  energy:            204.2007474

- temperature:       810.0000000
  free_energy:       109.5327356
  entropy:           118.7433667
  heat_capacity:     151.8952784
  energy:            205.7148626

- temperature:       820.0000000
  free_energy:       108.3359446
  entropy:           120.6129513
  heat_capacity:     152.8407765
  energy:            207.2385646

- temperature:       830.0000000
  free_energy:       107.1205145
  entropy:           122.4711785
  heat_capacity:     153.7606237
  energy:            208.7715927

- temperature:       840.0000000
  free_energy:       105.8865590
  entropy:           124.3180183
  heat_capacity:     154.6556415
  energy:            210.3136943

- temperature:       850.0000000
  free_energy:       104.6341921
  entropy:           126.1534509
  heat_capacity:     155.5266245
  energy:            211.8646254

- temperature:       860.0000000
  free_energy:       103.3635280
  entropy:           127.9774666
  heat_capacity:     156.3743410
  energy:            213.4241493

- temperature:       870.0000000
  free_energy:       102.0746809
  entropy:           129.7900647
  heat_capacity:     157.1995335
  energy:            214.9920371

- temperature:       880.0000000
  free_energy:       100.7677648
  entropy:           131.5912528
  heat_capacity:     158.0029197
  energy:            216.5680673

- temperature:       890.0000000
  free_energy:        99.4428938
  entropy:           133.3810465
  heat_capacity:     158.7851926
  energy:            218.1520251

- temperature:       900.0000000
  free_energy:        98.1001817
  entropy:           135.1594680
  heat_capacity:     159.5470220
  energy:            219.7437030

- temperature:       910.0000000
  free_energy:        96.7397422
  entropy:           136.9265466
  heat_capacity:     160.2890545
  energy:            221.3428996

- temperature:       920.0000000
  free_energy:        95.3616885
  entropy:           138.6823170
  heat_capacity:     161.0119145
  energy:            222.9494202

- temperature:       930.0000000
  free_energy:        93.9661334
  entropy:           140.4268199
  heat_capacity:     161.7162051
  energy:            224.5630760

- temperature:       940.0000000
  free_energy:        92.5531895
  entropy:           142.1601008
  heat_capacity:     162.4025084
  energy:            226.1836843

- temperature:       950.0000000
  free_energy:        91.1229687
  entropy:           143.8822099
  heat_capacity:     163.0713863
  energy:            227.8110681

- temperature:       960.0000000
  free_energy:        89.6755824
  entropy:           145.5932014
  heat_capacity:     163.7233813
  energy:            229.4450558

- temperature:       970.0000000
  free_energy:        88.2111415
  entropy:           147.2931337
  heat_capacity:     164.3590172
  energy:            231.0854812

- temperature:       980.0000000
  free_energy:        86.7297564
  entropy:           148.9820683
  heat_capacity:     164.9787995
  energy:            232.7321833

- temperature:       990.0000000
  free_energy:        85.2315366
  entropy:           150.6600701
  heat_capacity:     165.5832162
  energy:            234.3850059

- temperature:      1000.0000000
  free_energy:        83.7165912
  entropy:           152.3272068
  heat_capacity:     166.1727382
  energy:            236.0437979
