   4   4   1   0
  0.5717550E+01  0.2513094E-09  0.2513094E-09  0.4181402E-09  0.1500000E-16
   1.0000000000000000E-004
  CAR 
 unknown system                          
     36.03676397    -13.81581113  301     12.77742190      1.00000000
    -13.816  0.0000E+00  0.0000E+00  0.0000E+00  0.0000E+00
    -13.650  0.0000E+00  0.0000E+00  0.0000E+00  0.0000E+00
    -13.483  0.0000E+00  0.0000E+00  0.0000E+00  0.0000E+00
    -13.317  0.0000E+00  0.0000E+00  0.0000E+00  0.0000E+00
    -13.151  0.0000E+00  0.0000E+00  0.0000E+00  0.0000E+00
    -12.985  0.0000E+00  0.0000E+00  0.0000E+00  0.0000E+00
    -12.819  0.0000E+00  0.0000E+00  0.0000E+00  0.0000E+00
    -12.653  0.0000E+00  0.0000E+00  0.0000E+00  0.0000E+00
    -12.486  0.0000E+00  0.0000E+00  0.0000E+00  0.0000E+00
    -12.320  0.0000E+00  0.0000E+00  0.0000E+00  0.0000E+00
    -12.154  0.0000E+00  0.0000E+00  0.0000E+00  0.0000E+00
    -11.988  0.0000E+00  0.0000E+00  0.0000E+00  0.0000E+00
    -11.822  0.0000E+00  0.0000E+00  0.0000E+00  0.0000E+00
    -11.656  0.0000E+00  0.0000E+00  0.0000E+00  0.0000E+00
    -11.489  0.4468E-04  0.4469E-04  0.8999E-06  0.9003E-06
    -11.323  0.3975E-03  0.3975E-03  0.3889E-04  0.3889E-04
    -11.157  0.5319E-03  0.5319E-03  0.1175E-03  0.1176E-03
    -10.991  0.6722E-03  0.6722E-03  0.2189E-03  0.2189E-03
    -10.825  0.7622E-03  0.7622E-03  0.3377E-03  0.3377E-03
    -10.658  0.8899E-03  0.8899E-03  0.4750E-03  0.4750E-03
    -10.492  0.9713E-03  0.9713E-03  0.6301E-03  0.6302E-03
    -10.326  0.1028E-02  0.1028E-02  0.7963E-03  0.7963E-03
    -10.160  0.1095E-02  0.1095E-02  0.9725E-03  0.9725E-03
     -9.994  0.1177E-02  0.1177E-02  0.1161E-02  0.1161E-02
     -9.828  0.1261E-02  0.1261E-02  0.1364E-02  0.1364E-02
     -9.661  0.1324E-02  0.1324E-02  0.1579E-02  0.1579E-02
     -9.495  0.1373E-02  0.1373E-02  0.1803E-02  0.1803E-02
     -9.329  0.1429E-02  0.1429E-02  0.2036E-02  0.2036E-02
     -9.163  0.1485E-02  0.1485E-02  0.2278E-02  0.2278E-02
     -8.997  0.1545E-02  0.1545E-02  0.2530E-02  0.2530E-02
     -8.831  0.1605E-02  0.1605E-02  0.2792E-02  0.2792E-02
     -8.664  0.1653E-02  0.1653E-02  0.3062E-02  0.3062E-02
     -8.498  0.1706E-02  0.1706E-02  0.3341E-02  0.3341E-02
     -8.332  0.1763E-02  0.1763E-02  0.3630E-02  0.3630E-02
     -8.166  0.1817E-02  0.1817E-02  0.3927E-02  0.3927E-02
     -8.000  0.1865E-02  0.1865E-02  0.4233E-02  0.4233E-02
     -7.834  0.1918E-02  0.1918E-02  0.4547E-02  0.4547E-02
     -7.667  0.1969E-02  0.1969E-02  0.4870E-02  0.4870E-02
     -7.501  0.2014E-02  0.2014E-02  0.5201E-02  0.5201E-02
     -7.335  0.2062E-02  0.2062E-02  0.5540E-02  0.5540E-02
     -7.169  0.2112E-02  0.2112E-02  0.5887E-02  0.5887E-02
     -7.003  0.2165E-02  0.2165E-02  0.6242E-02  0.6242E-02
     -6.836  0.2222E-02  0.2222E-02  0.6606E-02  0.6606E-02
     -6.670  0.2281E-02  0.2281E-02  0.6981E-02  0.6981E-02
     -6.504  0.2343E-02  0.2343E-02  0.7365E-02  0.7365E-02
     -6.338  0.2418E-02  0.2418E-02  0.7760E-02  0.7760E-02
     -6.172  0.2499E-02  0.2499E-02  0.8168E-02  0.8169E-02
     -6.006  0.2600E-02  0.2600E-02  0.8592E-02  0.8592E-02
     -5.839  0.2714E-02  0.2714E-02  0.9033E-02  0.9033E-02
     -5.673  0.3037E-02  0.3037E-02  0.9507E-02  0.9507E-02
     -5.507  0.3105E-02  0.3105E-02  0.1003E-01  0.1003E-01
     -5.341  0.2985E-02  0.2985E-02  0.1053E-01  0.1053E-01
     -5.175  0.2956E-02  0.2956E-02  0.1102E-01  0.1102E-01
     -5.009  0.3167E-02  0.3167E-02  0.1152E-01  0.1152E-01
     -4.842  0.2941E-02  0.2941E-02  0.1203E-01  0.1203E-01
     -4.676  0.2763E-02  0.2763E-02  0.1250E-01  0.1250E-01
     -4.510  0.2678E-02  0.2678E-02  0.1295E-01  0.1295E-01
     -4.344  0.2597E-02  0.2597E-02  0.1339E-01  0.1339E-01
     -4.178  0.2484E-02  0.2484E-02  0.1381E-01  0.1381E-01
     -4.011  0.2402E-02  0.2402E-02  0.1422E-01  0.1422E-01
     -3.845  0.2394E-02  0.2394E-02  0.1462E-01  0.1462E-01
     -3.679  0.2320E-02  0.2320E-02  0.1501E-01  0.1501E-01
     -3.513  0.2505E-02  0.2505E-02  0.1540E-01  0.1540E-01
     -3.347  0.2983E-02  0.2983E-02  0.1586E-01  0.1586E-01
     -3.181  0.3125E-02  0.3125E-02  0.1637E-01  0.1637E-01
     -3.014  0.3308E-02  0.3308E-02  0.1690E-01  0.1690E-01
     -2.848  0.3154E-02  0.3154E-02  0.1745E-01  0.1745E-01
     -2.682  0.3240E-02  0.3240E-02  0.1800E-01  0.1800E-01
     -2.516  0.3054E-02  0.3054E-02  0.1852E-01  0.1852E-01
     -2.350  0.3099E-02  0.3099E-02  0.1902E-01  0.1902E-01
     -2.184  0.2458E-02  0.2458E-02  0.1952E-01  0.1952E-01
     -2.017  0.2162E-02  0.2162E-02  0.1990E-01  0.1990E-01
     -1.851  0.2080E-02  0.2080E-02  0.2025E-01  0.2025E-01
     -1.685  0.2211E-02  0.2211E-02  0.2061E-01  0.2061E-01
     -1.519  0.2264E-02  0.2264E-02  0.2098E-01  0.2098E-01
     -1.353  0.2633E-02  0.2633E-02  0.2138E-01  0.2138E-01
     -1.186  0.3233E-02  0.3233E-02  0.2186E-01  0.2186E-01
     -1.020  0.3691E-02  0.3691E-02  0.2244E-01  0.2244E-01
     -0.854  0.3811E-02  0.3811E-02  0.2307E-01  0.2307E-01
     -0.688  0.4149E-02  0.4149E-02  0.2373E-01  0.2373E-01
     -0.522  0.4545E-02  0.4545E-02  0.2445E-01  0.2445E-01
     -0.356  0.4263E-02  0.4263E-02  0.2519E-01  0.2519E-01
     -0.189  0.3949E-02  0.3948E-02  0.2587E-01  0.2587E-01
     -0.023  0.3761E-02  0.3761E-02  0.2651E-01  0.2651E-01
      0.143  0.3373E-02  0.3373E-02  0.2710E-01  0.2710E-01
      0.309  0.3136E-02  0.3136E-02  0.2764E-01  0.2764E-01
      0.475  0.2963E-02  0.2963E-02  0.2815E-01  0.2815E-01
      0.641  0.2985E-02  0.2985E-02  0.2863E-01  0.2863E-01
      0.808  0.2988E-02  0.2988E-02  0.2913E-01  0.2913E-01
      0.974  0.3332E-02  0.3332E-02  0.2964E-01  0.2964E-01
      1.140  0.3934E-02  0.3934E-02  0.3024E-01  0.3024E-01
      1.306  0.4578E-02  0.4578E-02  0.3095E-01  0.3095E-01
      1.472  0.4949E-02  0.4949E-02  0.3175E-01  0.3175E-01
      1.638  0.4987E-02  0.4987E-02  0.3258E-01  0.3258E-01
      1.805  0.4656E-02  0.4656E-02  0.3339E-01  0.3339E-01
      1.971  0.4307E-02  0.4307E-02  0.3413E-01  0.3413E-01
      2.137  0.3996E-02  0.3996E-02  0.3482E-01  0.3482E-01
      2.303  0.3976E-02  0.3976E-02  0.3549E-01  0.3549E-01
      2.469  0.3961E-02  0.3961E-02  0.3614E-01  0.3614E-01
      2.636  0.3882E-02  0.3882E-02  0.3680E-01  0.3680E-01
      2.802  0.3811E-02  0.3811E-02  0.3743E-01  0.3743E-01
      2.968  0.3926E-02  0.3926E-02  0.3808E-01  0.3808E-01
      3.134  0.4177E-02  0.4177E-02  0.3874E-01  0.3874E-01
      3.300  0.4396E-02  0.4396E-02  0.3945E-01  0.3945E-01
      3.466  0.4753E-02  0.4753E-02  0.4021E-01  0.4021E-01
      3.633  0.5038E-02  0.5038E-02  0.4102E-01  0.4102E-01
      3.799  0.5146E-02  0.5146E-02  0.4187E-01  0.4187E-01
      3.965  0.5339E-02  0.5339E-02  0.4274E-01  0.4274E-01
      4.131  0.5296E-02  0.5296E-02  0.4362E-01  0.4362E-01
      4.297  0.4857E-02  0.4857E-02  0.4442E-01  0.4442E-01
      4.463  0.5065E-02  0.5065E-02  0.4525E-01  0.4525E-01
      4.630  0.4905E-02  0.4905E-02  0.4608E-01  0.4608E-01
      4.796  0.5285E-02  0.5285E-02  0.4693E-01  0.4693E-01
      4.962  0.5569E-02  0.5569E-02  0.4783E-01  0.4783E-01
      5.128  0.5679E-02  0.5679E-02  0.4877E-01  0.4877E-01
      5.294  0.5689E-02  0.5689E-02  0.4972E-01  0.4972E-01
      5.461  0.5755E-02  0.5755E-02  0.5068E-01  0.5068E-01
      5.627  0.6034E-02  0.6034E-02  0.5166E-01  0.5166E-01
      5.793  0.6576E-02  0.6576E-02  0.5270E-01  0.5270E-01
      5.959  0.6992E-02  0.6992E-02  0.5384E-01  0.5384E-01
      6.125  0.6978E-02  0.6978E-02  0.5502E-01  0.5502E-01
      6.291  0.6813E-02  0.6813E-02  0.5617E-01  0.5617E-01
      6.458  0.6187E-02  0.6187E-02  0.5725E-01  0.5725E-01
      6.624  0.5986E-02  0.5986E-02  0.5825E-01  0.5825E-01
      6.790  0.6219E-02  0.6219E-02  0.5926E-01  0.5926E-01
      6.956  0.7193E-02  0.7193E-02  0.6034E-01  0.6034E-01
      7.122  0.8671E-02  0.8671E-02  0.6170E-01  0.6170E-01
      7.288  0.9022E-02  0.9022E-02  0.6315E-01  0.6315E-01
      7.455  0.1120E-01  0.1120E-01  0.6481E-01  0.6481E-01
      7.621  0.7648E-02  0.7648E-02  0.6626E-01  0.6626E-01
      7.787  0.6890E-02  0.6890E-02  0.6745E-01  0.6745E-01
      7.953  0.6662E-02  0.6662E-02  0.6858E-01  0.6858E-01
      8.119  0.6442E-02  0.6442E-02  0.6966E-01  0.6966E-01
      8.285  0.5822E-02  0.5822E-02  0.7068E-01  0.7068E-01
      8.452  0.5625E-02  0.5625E-02  0.7163E-01  0.7163E-01
      8.618  0.5121E-02  0.5121E-02  0.7252E-01  0.7252E-01
      8.784  0.4726E-02  0.4726E-02  0.7334E-01  0.7334E-01
      8.950  0.4242E-02  0.4242E-02  0.7409E-01  0.7409E-01
      9.116  0.3643E-02  0.3643E-02  0.7474E-01  0.7474E-01
      9.283  0.3270E-02  0.3270E-02  0.7532E-01  0.7532E-01
      9.449  0.3031E-02  0.3031E-02  0.7584E-01  0.7584E-01
      9.615  0.2870E-02  0.2870E-02  0.7633E-01  0.7633E-01
      9.781  0.2631E-02  0.2631E-02  0.7679E-01  0.7679E-01
      9.947  0.2386E-02  0.2386E-02  0.7720E-01  0.7720E-01
     10.113  0.2185E-02  0.2185E-02  0.7758E-01  0.7758E-01
     10.280  0.2040E-02  0.2040E-02  0.7793E-01  0.7793E-01
     10.446  0.1866E-02  0.1866E-02  0.7826E-01  0.7826E-01
     10.612  0.1637E-02  0.1637E-02  0.7855E-01  0.7855E-01
     10.778  0.1435E-02  0.1435E-02  0.7880E-01  0.7880E-01
     10.944  0.1254E-02  0.1254E-02  0.7903E-01  0.7903E-01
     11.110  0.1072E-02  0.1072E-02  0.7922E-01  0.7922E-01
     11.277  0.9200E-03  0.9200E-03  0.7938E-01  0.7938E-01
     11.443  0.7970E-03  0.7970E-03  0.7953E-01  0.7953E-01
     11.609  0.6886E-03  0.6886E-03  0.7965E-01  0.7965E-01
     11.775  0.5723E-03  0.5723E-03  0.7975E-01  0.7975E-01
     11.941  0.4552E-03  0.4552E-03  0.7984E-01  0.7984E-01
     12.108  0.3658E-03  0.3658E-03  0.7991E-01  0.7991E-01
     12.274  0.2523E-03  0.2523E-03  0.7996E-01  0.7996E-01
     12.440  0.1197E-03  0.1197E-03  0.7999E-01  0.7999E-01
     12.606  0.1284E-04  0.1284E-04  0.8000E-01  0.8000E-01
     12.772  0.0000E+00  0.0000E+00  0.8000E-01  0.8000E-01
     12.938  0.0000E+00  0.0000E+00  0.8000E-01  0.8000E-01
     13.105  0.0000E+00  0.0000E+00  0.8000E-01  0.8000E-01
     13.271  0.0000E+00  0.0000E+00  0.8000E-01  0.8000E-01
     13.437  0.0000E+00  0.0000E+00  0.8000E-01  0.8000E-01
     13.603  0.0000E+00  0.0000E+00  0.8000E-01  0.8000E-01
     13.769  0.0000E+00  0.0000E+00  0.8000E-01  0.8000E-01
     13.935  0.0000E+00  0.0000E+00  0.8000E-01  0.8000E-01
     14.102  0.0000E+00  0.0000E+00  0.8000E-01  0.8000E-01
     14.268  0.0000E+00  0.0000E+00  0.8000E-01  0.8000E-01
     14.434  0.0000E+00  0.0000E+00  0.8000E-01  0.8000E-01
     14.600  0.0000E+00  0.0000E+00  0.8000E-01  0.8000E-01
     14.766  0.0000E+00  0.0000E+00  0.8000E-01  0.8000E-01
     14.933  0.0000E+00  0.0000E+00  0.8000E-01  0.8000E-01
     15.099  0.0000E+00  0.0000E+00  0.8000E-01  0.8000E-01
     15.265  0.0000E+00  0.0000E+00  0.8000E-01  0.8000E-01
     15.431  0.3010E-04  0.3010E-04  0.8000E-01  0.8000E-01
     15.597  0.7988E-04  0.7988E-04  0.8001E-01  0.8001E-01
     15.763  0.1318E-03  0.1318E-03  0.8003E-01  0.8003E-01
     15.930  0.1877E-03  0.1877E-03  0.8005E-01  0.8005E-01
     16.096  0.2487E-03  0.2487E-03  0.8009E-01  0.8009E-01
     16.262  0.3143E-03  0.3143E-03  0.8014E-01  0.8014E-01
     16.428  0.3560E-03  0.3560E-03  0.8019E-01  0.8019E-01
     16.594  0.3889E-03  0.3889E-03  0.8026E-01  0.8026E-01
     16.760  0.4220E-03  0.4220E-03  0.8032E-01  0.8032E-01
     16.927  0.4558E-03  0.4558E-03  0.8040E-01  0.8040E-01
     17.093  0.4902E-03  0.4902E-03  0.8047E-01  0.8047E-01
     17.259  0.5371E-03  0.5371E-03  0.8056E-01  0.8056E-01
     17.425  0.5895E-03  0.5895E-03  0.8065E-01  0.8065E-01
     17.591  0.7479E-03  0.7479E-03  0.8076E-01  0.8076E-01
     17.757  0.1352E-02  0.1352E-02  0.8093E-01  0.8093E-01
     17.924  0.2244E-02  0.2244E-02  0.8122E-01  0.8122E-01
     18.090  0.3787E-02  0.3787E-02  0.8171E-01  0.8171E-01
     18.256  0.5905E-02  0.5905E-02  0.8252E-01  0.8252E-01
     18.422  0.5651E-02  0.5651E-02  0.8355E-01  0.8355E-01
     18.588  0.5307E-02  0.5307E-02  0.8447E-01  0.8447E-01
     18.755  0.4645E-02  0.4645E-02  0.8527E-01  0.8527E-01
     18.921  0.4672E-02  0.4672E-02  0.8604E-01  0.8604E-01
     19.087  0.4803E-02  0.4803E-02  0.8683E-01  0.8683E-01
     19.253  0.4967E-02  0.4967E-02  0.8764E-01  0.8764E-01
     19.419  0.5664E-02  0.5664E-02  0.8850E-01  0.8850E-01
     19.585  0.5856E-02  0.5856E-02  0.8947E-01  0.8947E-01
     19.752  0.6348E-02  0.6348E-02  0.9048E-01  0.9048E-01
     19.918  0.6923E-02  0.6923E-02  0.9159E-01  0.9159E-01
     20.084  0.8056E-02  0.8056E-02  0.9282E-01  0.9282E-01
     20.250  0.9477E-02  0.9477E-02  0.9429E-01  0.9429E-01
     20.416  0.1045E-01  0.1045E-01  0.9594E-01  0.9594E-01
     20.582  0.8684E-02  0.8684E-02  0.9755E-01  0.9755E-01
     20.749  0.7933E-02  0.7933E-02  0.9890E-01  0.9890E-01
     20.915  0.5952E-02  0.5952E-02  0.1001E+00  0.1001E+00
     21.081  0.5697E-02  0.5697E-02  0.1011E+00  0.1011E+00
     21.247  0.6448E-02  0.6448E-02  0.1021E+00  0.1021E+00
     21.413  0.6326E-02  0.6326E-02  0.1032E+00  0.1032E+00
     21.580  0.5374E-02  0.5374E-02  0.1041E+00  0.1041E+00
     21.746  0.5032E-02  0.5032E-02  0.1050E+00  0.1050E+00
     21.912  0.5170E-02  0.5170E-02  0.1058E+00  0.1058E+00
     22.078  0.5530E-02  0.5530E-02  0.1067E+00  0.1067E+00
     22.244  0.5995E-02  0.5995E-02  0.1077E+00  0.1077E+00
     22.410  0.6942E-02  0.6942E-02  0.1088E+00  0.1088E+00
     22.577  0.8200E-02  0.8200E-02  0.1100E+00  0.1100E+00
     22.743  0.8101E-02  0.8101E-02  0.1114E+00  0.1114E+00
     22.909  0.8046E-02  0.8046E-02  0.1127E+00  0.1127E+00
     23.075  0.8146E-02  0.8146E-02  0.1141E+00  0.1141E+00
     23.241  0.6434E-02  0.6434E-02  0.1153E+00  0.1153E+00
     23.407  0.5522E-02  0.5522E-02  0.1162E+00  0.1162E+00
     23.574  0.5014E-02  0.5014E-02  0.1171E+00  0.1171E+00
     23.740  0.4697E-02  0.4697E-02  0.1179E+00  0.1179E+00
     23.906  0.4721E-02  0.4721E-02  0.1187E+00  0.1187E+00
     24.072  0.4884E-02  0.4884E-02  0.1195E+00  0.1195E+00
     24.238  0.4478E-02  0.4478E-02  0.1203E+00  0.1203E+00
     24.404  0.4571E-02  0.4571E-02  0.1210E+00  0.1210E+00
     24.571  0.5341E-02  0.5341E-02  0.1218E+00  0.1218E+00
     24.737  0.7297E-02  0.7297E-02  0.1229E+00  0.1229E+00
     24.903  0.7241E-02  0.7241E-02  0.1241E+00  0.1241E+00
     25.069  0.6246E-02  0.6246E-02  0.1253E+00  0.1253E+00
     25.235  0.5888E-02  0.5888E-02  0.1263E+00  0.1263E+00
     25.402  0.5536E-02  0.5536E-02  0.1272E+00  0.1272E+00
     25.568  0.5273E-02  0.5273E-02  0.1281E+00  0.1281E+00
     25.734  0.5222E-02  0.5222E-02  0.1290E+00  0.1290E+00
     25.900  0.5167E-02  0.5167E-02  0.1299E+00  0.1299E+00
     26.066  0.4968E-02  0.4968E-02  0.1307E+00  0.1307E+00
     26.232  0.4664E-02  0.4664E-02  0.1315E+00  0.1315E+00
     26.399  0.4011E-02  0.4011E-02  0.1322E+00  0.1322E+00
     26.565  0.3588E-02  0.3588E-02  0.1329E+00  0.1329E+00
     26.731  0.3223E-02  0.3223E-02  0.1334E+00  0.1334E+00
     26.897  0.3052E-02  0.3052E-02  0.1340E+00  0.1340E+00
     27.063  0.3133E-02  0.3133E-02  0.1345E+00  0.1345E+00
     27.229  0.3779E-02  0.3779E-02  0.1351E+00  0.1350E+00
     27.396  0.4367E-02  0.4367E-02  0.1358E+00  0.1358E+00
     27.562  0.4064E-02  0.4064E-02  0.1365E+00  0.1365E+00
     27.728  0.3805E-02  0.3805E-02  0.1371E+00  0.1371E+00
     27.894  0.3716E-02  0.3716E-02  0.1377E+00  0.1377E+00
     28.060  0.4028E-02  0.4028E-02  0.1384E+00  0.1384E+00
     28.227  0.5660E-02  0.5660E-02  0.1391E+00  0.1391E+00
     28.393  0.6413E-02  0.6413E-02  0.1402E+00  0.1402E+00
     28.559  0.5675E-02  0.5676E-02  0.1412E+00  0.1412E+00
     28.725  0.5146E-02  0.5146E-02  0.1421E+00  0.1421E+00
     28.891  0.4553E-02  0.4553E-02  0.1429E+00  0.1429E+00
     29.057  0.4303E-02  0.4303E-02  0.1436E+00  0.1436E+00
     29.224  0.4179E-02  0.4179E-02  0.1443E+00  0.1443E+00
     29.390  0.4190E-02  0.4190E-02  0.1450E+00  0.1450E+00
     29.556  0.4592E-02  0.4592E-02  0.1458E+00  0.1458E+00
     29.722  0.5579E-02  0.5578E-02  0.1466E+00  0.1466E+00
     29.888  0.6568E-02  0.6568E-02  0.1476E+00  0.1476E+00
     30.054  0.7348E-02  0.7348E-02  0.1488E+00  0.1488E+00
     30.221  0.7350E-02  0.7351E-02  0.1500E+00  0.1500E+00
     30.387  0.7312E-02  0.7312E-02  0.1512E+00  0.1512E+00
     30.553  0.6603E-02  0.6604E-02  0.1524E+00  0.1524E+00
     30.719  0.6261E-02  0.6261E-02  0.1535E+00  0.1535E+00
     30.885  0.5786E-02  0.5786E-02  0.1545E+00  0.1545E+00
     31.052  0.5056E-02  0.5056E-02  0.1554E+00  0.1554E+00
     31.218  0.4663E-02  0.4664E-02  0.1562E+00  0.1562E+00
     31.384  0.3981E-02  0.3981E-02  0.1569E+00  0.1569E+00
     31.550  0.2887E-02  0.2887E-02  0.1575E+00  0.1575E+00
     31.716  0.2248E-02  0.2248E-02  0.1579E+00  0.1579E+00
     31.882  0.1925E-02  0.1925E-02  0.1583E+00  0.1583E+00
     32.049  0.1613E-02  0.1613E-02  0.1586E+00  0.1586E+00
     32.215  0.1442E-02  0.1442E-02  0.1588E+00  0.1588E+00
     32.381  0.1438E-02  0.1438E-02  0.1591E+00  0.1591E+00
     32.547  0.1252E-02  0.1252E-02  0.1593E+00  0.1593E+00
     32.713  0.1055E-02  0.1055E-02  0.1595E+00  0.1595E+00
     32.879  0.8625E-03  0.8625E-03  0.1596E+00  0.1596E+00
     33.046  0.6903E-03  0.6903E-03  0.1598E+00  0.1598E+00
     33.212  0.5288E-03  0.5289E-03  0.1599E+00  0.1599E+00
     33.378  0.3776E-03  0.3776E-03  0.1599E+00  0.1599E+00
     33.544  0.1943E-03  0.1943E-03  0.1600E+00  0.1600E+00
     33.710  0.1381E-04  0.1382E-04  0.1600E+00  0.1600E+00
     33.876  0.0000E+00  0.0000E+00  0.1600E+00  0.1600E+00
     34.043  0.0000E+00  0.0000E+00  0.1600E+00  0.1600E+00
     34.209  0.0000E+00  0.0000E+00  0.1600E+00  0.1600E+00
     34.375  0.0000E+00  0.0000E+00  0.1600E+00  0.1600E+00
     34.541  0.0000E+00  0.0000E+00  0.1600E+00  0.1600E+00
     34.707  0.0000E+00  0.0000E+00  0.1600E+00  0.1600E+00
     34.874  0.0000E+00  0.0000E+00  0.1600E+00  0.1600E+00
     35.040  0.0000E+00  0.0000E+00  0.1600E+00  0.1600E+00
     35.206  0.0000E+00  0.0000E+00  0.1600E+00  0.1600E+00
     35.372  0.0000E+00  0.0000E+00  0.1600E+00  0.1600E+00
     35.538  0.0000E+00  0.0000E+00  0.1600E+00  0.1600E+00
     35.704  0.0000E+00  0.0000E+00  0.1600E+00  0.1600E+00
     35.871  0.0000E+00  0.0000E+00  0.1600E+00  0.1600E+00
     36.037  0.0000E+00  0.0000E+00  0.1600E+00  0.1600E+00
     36.03676397    -13.81581113  301     12.77742190      1.00000000
    -13.816  0.0000E+00  0.0000E+00  0.0000E+00  0.0000E+00  0.0000E+00  0.0000E+00  0.0000E+00  0.0000E+00  0.0000E+00  0.0000E+00  0.0000E+00  0.0000E+00  0.0000E+00  0.0000E+00  0.0000E+00  0.0000E+00  0.0000E+00  0.0000E+00
    -13.650  0.0000E+00  0.0000E+00  0.0000E+00  0.0000E+00  0.0000E+00  0.0000E+00  0.0000E+00  0.0000E+00  0.0000E+00  0.0000E+00  0.0000E+00  0.0000E+00  0.0000E+00  0.0000E+00  0.0000E+00  0.0000E+00  0.0000E+00  0.0000E+00
    -13.483  0.0000E+00  0.0000E+00  0.0000E+00  0.0000E+00  0.0000E+00  0.0000E+00  0.0000E+00  0.0000E+00  0.0000E+00  0.0000E+00  0.0000E+00  0.0000E+00  0.0000E+00  0.0000E+00  0.0000E+00  0.0000E+00  0.0000E+00  0.0000E+00
    -13.317  0.0000E+00  0.0000E+00  0.0000E+00  0.0000E+00  0.0000E+00  0.0000E+00  0.0000E+00  0.0000E+00  0.0000E+00  0.0000E+00  0.0000E+00  0.0000E+00  0.0000E+00  0.0000E+00  0.0000E+00  0.0000E+00  0.0000E+00  0.0000E+00
    -13.151  0.0000E+00  0.0000E+00  0.0000E+00  0.0000E+00  0.0000E+00  0.0000E+00  0.0000E+00  0.0000E+00  0.0000E+00  0.0000E+00  0.0000E+00  0.0000E+00  0.0000E+00  0.0000E+00  0.0000E+00  0.0000E+00  0.0000E+00  0.0000E+00
    -12.985  0.0000E+00  0.0000E+00  0.0000E+00  0.0000E+00  0.0000E+00  0.0000E+00  0.0000E+00  0.0000E+00  0.0000E+00  0.0000E+00  0.0000E+00  0.0000E+00  0.0000E+00  0.0000E+00  0.0000E+00  0.0000E+00  0.0000E+00  0.0000E+00
    -12.819  0.0000E+00  0.0000E+00  0.0000E+00  0.0000E+00  0.0000E+00  0.0000E+00  0.0000E+00  0.0000E+00  0.0000E+00  0.0000E+00  0.0000E+00  0.0000E+00  0.0000E+00  0.0000E+00  0.0000E+00  0.0000E+00  0.0000E+00  0.0000E+00
    -12.653  0.0000E+00  0.0000E+00  0.0000E+00  0.0000E+00  0.0000E+00  0.0000E+00  0.0000E+00  0.0000E+00  0.0000E+00  0.0000E+00  0.0000E+00  0.0000E+00  0.0000E+00  0.0000E+00  0.0000E+00  0.0000E+00  0.0000E+00  0.0000E+00
    -12.486  0.0000E+00  0.0000E+00  0.0000E+00  0.0000E+00  0.0000E+00  0.0000E+00  0.0000E+00  0.0000E+00  0.0000E+00  0.0000E+00  0.0000E+00  0.0000E+00  0.0000E+00  0.0000E+00  0.0000E+00  0.0000E+00  0.0000E+00  0.0000E+00
    -12.320  0.0000E+00  0.0000E+00  0.0000E+00  0.0000E+00  0.0000E+00  0.0000E+00  0.0000E+00  0.0000E+00  0.0000E+00  0.0000E+00  0.0000E+00  0.0000E+00  0.0000E+00  0.0000E+00  0.0000E+00  0.0000E+00  0.0000E+00  0.0000E+00
    -12.154  0.0000E+00  0.0000E+00  0.0000E+00  0.0000E+00  0.0000E+00  0.0000E+00  0.0000E+00  0.0000E+00  0.0000E+00  0.0000E+00  0.0000E+00  0.0000E+00  0.0000E+00  0.0000E+00  0.0000E+00  0.0000E+00  0.0000E+00  0.0000E+00
    -11.988  0.0000E+00  0.0000E+00  0.0000E+00  0.0000E+00  0.0000E+00  0.0000E+00  0.0000E+00  0.0000E+00  0.0000E+00  0.0000E+00  0.0000E+00  0.0000E+00  0.0000E+00  0.0000E+00  0.0000E+00  0.0000E+00  0.0000E+00  0.0000E+00
    -11.822  0.0000E+00  0.0000E+00  0.0000E+00  0.0000E+00  0.0000E+00  0.0000E+00  0.0000E+00  0.0000E+00  0.0000E+00  0.0000E+00  0.0000E+00  0.0000E+00  0.0000E+00  0.0000E+00  0.0000E+00  0.0000E+00  0.0000E+00  0.0000E+00
    -11.656  0.0000E+00  0.0000E+00  0.0000E+00  0.0000E+00  0.0000E+00  0.0000E+00  0.0000E+00  0.0000E+00  0.0000E+00  0.0000E+00  0.0000E+00  0.0000E+00  0.0000E+00  0.0000E+00  0.0000E+00  0.0000E+00  0.0000E+00  0.0000E+00
    -11.489  0.6750E-03  0.6752E-03  0.7396E-06  0.7398E-06  0.2413E-05  0.2414E-05  0.2219E-05  0.2219E-05  0.0000E+00  0.0000E+00  0.0000E+00  0.0000E+00  0.0000E+00  0.0000E+00  0.0000E+00  0.0000E+00  0.0000E+00  0.0000E+00
    -11.323  0.5980E-02  0.5980E-02  0.1889E-04  0.1889E-04  0.3209E-04  0.3209E-04  0.2781E-04  0.2781E-04  0.0000E+00  0.0000E+00  0.0000E+00  0.0000E+00  0.0000E+00  0.0000E+00  0.0000E+00  0.0000E+00  0.0000E+00  0.0000E+00
    -11.157  0.7947E-02  0.7947E-02  0.5183E-04  0.5183E-04  0.6593E-04  0.6593E-04  0.5791E-04  0.5791E-04  0.0000E+00  0.0000E+00  0.0000E+00  0.0000E+00  0.0000E+00  0.0000E+00  0.0000E+00  0.0000E+00  0.0000E+00  0.0000E+00
    -10.991  0.9984E-02  0.9984E-02  0.9020E-04  0.9020E-04  0.1106E-03  0.1106E-03  0.1002E-03  0.1002E-03  0.0000E+00  0.0000E+00  0.0000E+00  0.0000E+00  0.0000E+00  0.0000E+00  0.0000E+00  0.0000E+00  0.0000E+00  0.0000E+00
    -10.825  0.1124E-01  0.1124E-01  0.1400E-03  0.1400E-03  0.1557E-03  0.1557E-03  0.1445E-03  0.1445E-03  0.0000E+00  0.0000E+00  0.0000E+00  0.0000E+00  0.0000E+00  0.0000E+00  0.0000E+00  0.0000E+00  0.0000E+00  0.0000E+00
    -10.658  0.1305E-01  0.1305E-01  0.1884E-03  0.1884E-03  0.2169E-03  0.2169E-03  0.2019E-03  0.2019E-03  0.0000E+00  0.0000E+00  0.0000E+00  0.0000E+00  0.0000E+00  0.0000E+00  0.0000E+00  0.0000E+00  0.0000E+00  0.0000E+00
    -10.492  0.1404E-01  0.1404E-01  0.2391E-03  0.2391E-03  0.2920E-03  0.2920E-03  0.2644E-03  0.2644E-03  0.0000E+00  0.0000E+00  0.0000E+00  0.0000E+00  0.0000E+00  0.0000E+00  0.0000E+00  0.0000E+00  0.0000E+00  0.0000E+00
    -10.326  0.1462E-01  0.1462E-01  0.3054E-03  0.3054E-03  0.3716E-03  0.3716E-03  0.3245E-03  0.3245E-03  0.0000E+00  0.0000E+00  0.0000E+00  0.0000E+00  0.0000E+00  0.0000E+00  0.0000E+00  0.0000E+00  0.0000E+00  0.0000E+00
    -10.160  0.1532E-01  0.1532E-01  0.3793E-03  0.3793E-03  0.4662E-03  0.4662E-03  0.3847E-03  0.3847E-03  0.0000E+00  0.0000E+00  0.0000E+00  0.0000E+00  0.0000E+00  0.0000E+00  0.0000E+00  0.0000E+00  0.0000E+00  0.0000E+00
     -9.994  0.1621E-01  0.1621E-01  0.4420E-03  0.4420E-03  0.5650E-03  0.5650E-03  0.4531E-03  0.4531E-03  0.0000E+00  0.0000E+00  0.0000E+00  0.0000E+00  0.0000E+00  0.0000E+00  0.0000E+00  0.0000E+00  0.0000E+00  0.0000E+00
     -9.828  0.1710E-01  0.1710E-01  0.5046E-03  0.5046E-03  0.6698E-03  0.6699E-03  0.5259E-03  0.5259E-03  0.0000E+00  0.0000E+00  0.0000E+00  0.0000E+00  0.0000E+00  0.0000E+00  0.0000E+00  0.0000E+00  0.0000E+00  0.0000E+00
     -9.661  0.1764E-01  0.1764E-01  0.5845E-03  0.5845E-03  0.7847E-03  0.7847E-03  0.6030E-03  0.6030E-03  0.0000E+00  0.0000E+00  0.0000E+00  0.0000E+00  0.0000E+00  0.0000E+00  0.0000E+00  0.0000E+00  0.0000E+00  0.0000E+00
     -9.495  0.1835E-01  0.1835E-01  0.6701E-03  0.6701E-03  0.8493E-03  0.8493E-03  0.6822E-03  0.6822E-03  0.0000E+00  0.0000E+00  0.0000E+00  0.0000E+00  0.0000E+00  0.0000E+00  0.0000E+00  0.0000E+00  0.0000E+00  0.0000E+00
     -9.329  0.1918E-01  0.1918E-01  0.7530E-03  0.7530E-03  0.9122E-03  0.9122E-03  0.7616E-03  0.7616E-03  0.0000E+00  0.0000E+00  0.0000E+00  0.0000E+00  0.0000E+00  0.0000E+00  0.0000E+00  0.0000E+00  0.0000E+00  0.0000E+00
     -9.163  0.2002E-01  0.2002E-01  0.8361E-03  0.8361E-03  0.9707E-03  0.9707E-03  0.8452E-03  0.8452E-03  0.0000E+00  0.0000E+00  0.0000E+00  0.0000E+00  0.0000E+00  0.0000E+00  0.0000E+00  0.0000E+00  0.0000E+00  0.0000E+00
     -8.997  0.2090E-01  0.2090E-01  0.9153E-03  0.9153E-03  0.1037E-02  0.1037E-02  0.9363E-03  0.9363E-03  0.0000E+00  0.0000E+00  0.0000E+00  0.0000E+00  0.0000E+00  0.0000E+00  0.0000E+00  0.0000E+00  0.0000E+00  0.0000E+00
     -8.831  0.2172E-01  0.2172E-01  0.1003E-02  0.1003E-02  0.1118E-02  0.1118E-02  0.1033E-02  0.1033E-02  0.0000E+00  0.0000E+00  0.0000E+00  0.0000E+00  0.0000E+00  0.0000E+00  0.0000E+00  0.0000E+00  0.0000E+00  0.0000E+00
     -8.664  0.2236E-01  0.2236E-01  0.1105E-02  0.1105E-02  0.1204E-02  0.1204E-02  0.1133E-02  0.1133E-02  0.0000E+00  0.0000E+00  0.0000E+00  0.0000E+00  0.0000E+00  0.0000E+00  0.0000E+00  0.0000E+00  0.0000E+00  0.0000E+00
     -8.498  0.2304E-01  0.2304E-01  0.1209E-02  0.1209E-02  0.1291E-02  0.1291E-02  0.1232E-02  0.1232E-02  0.0000E+00  0.0000E+00  0.0000E+00  0.0000E+00  0.0000E+00  0.0000E+00  0.0000E+00  0.0000E+00  0.0000E+00  0.0000E+00
     -8.332  0.2378E-01  0.2378E-01  0.1311E-02  0.1311E-02  0.1379E-02  0.1379E-02  0.1333E-02  0.1333E-02  0.0000E+00  0.0000E+00  0.0000E+00  0.0000E+00  0.0000E+00  0.0000E+00  0.0000E+00  0.0000E+00  0.0000E+00  0.0000E+00
     -8.166  0.2447E-01  0.2447E-01  0.1415E-02  0.1415E-02  0.1469E-02  0.1469E-02  0.1435E-02  0.1435E-02  0.0000E+00  0.0000E+00  0.0000E+00  0.0000E+00  0.0000E+00  0.0000E+00  0.0000E+00  0.0000E+00  0.0000E+00  0.0000E+00
     -8.000  0.2498E-01  0.2498E-01  0.1522E-02  0.1522E-02  0.1575E-02  0.1575E-02  0.1539E-02  0.1539E-02  0.0000E+00  0.0000E+00  0.0000E+00  0.0000E+00  0.0000E+00  0.0000E+00  0.0000E+00  0.0000E+00  0.0000E+00  0.0000E+00
     -7.834  0.2551E-01  0.2551E-01  0.1630E-02  0.1630E-02  0.1694E-02  0.1694E-02  0.1648E-02  0.1648E-02  0.0000E+00  0.0000E+00  0.0000E+00  0.0000E+00  0.0000E+00  0.0000E+00  0.0000E+00  0.0000E+00  0.0000E+00  0.0000E+00
     -7.667  0.2606E-01  0.2606E-01  0.1741E-02  0.1741E-02  0.1807E-02  0.1807E-02  0.1761E-02  0.1761E-02  0.0000E+00  0.0000E+00  0.0000E+00  0.0000E+00  0.0000E+00  0.0000E+00  0.0000E+00  0.0000E+00  0.0000E+00  0.0000E+00
     -7.501  0.2652E-01  0.2652E-01  0.1863E-02  0.1863E-02  0.1919E-02  0.1919E-02  0.1879E-02  0.1879E-02  0.0000E+00  0.0000E+00  0.0000E+00  0.0000E+00  0.0000E+00  0.0000E+00  0.0000E+00  0.0000E+00  0.0000E+00  0.0000E+00
     -7.335  0.2705E-01  0.2705E-01  0.1982E-02  0.1982E-02  0.2030E-02  0.2030E-02  0.1997E-02  0.1997E-02  0.0000E+00  0.0000E+00  0.0000E+00  0.0000E+00  0.0000E+00  0.0000E+00  0.0000E+00  0.0000E+00  0.0000E+00  0.0000E+00
     -7.169  0.2762E-01  0.2762E-01  0.2100E-02  0.2100E-02  0.2137E-02  0.2137E-02  0.2117E-02  0.2117E-02  0.0000E+00  0.0000E+00  0.0000E+00  0.0000E+00  0.0000E+00  0.0000E+00  0.0000E+00  0.0000E+00  0.0000E+00  0.0000E+00
     -7.003  0.2821E-01  0.2821E-01  0.2218E-02  0.2218E-02  0.2254E-02  0.2254E-02  0.2239E-02  0.2239E-02  0.0000E+00  0.0000E+00  0.0000E+00  0.0000E+00  0.0000E+00  0.0000E+00  0.0000E+00  0.0000E+00  0.0000E+00  0.0000E+00
     -6.836  0.2881E-01  0.2881E-01  0.2340E-02  0.2340E-02  0.2388E-02  0.2388E-02  0.2362E-02  0.2362E-02  0.0000E+00  0.0000E+00  0.0000E+00  0.0000E+00  0.0000E+00  0.0000E+00  0.0000E+00  0.0000E+00  0.0000E+00  0.0000E+00
     -6.670  0.2945E-01  0.2945E-01  0.2463E-02  0.2463E-02  0.2521E-02  0.2521E-02  0.2486E-02  0.2486E-02  0.0000E+00  0.0000E+00  0.0000E+00  0.0000E+00  0.0000E+00  0.0000E+00  0.0000E+00  0.0000E+00  0.0000E+00  0.0000E+00
     -6.504  0.3016E-01  0.3016E-01  0.2588E-02  0.2588E-02  0.2653E-02  0.2653E-02  0.2615E-02  0.2615E-02  0.0000E+00  0.0000E+00  0.0000E+00  0.0000E+00  0.0000E+00  0.0000E+00  0.0000E+00  0.0000E+00  0.0000E+00  0.0000E+00
     -6.338  0.3110E-01  0.3110E-01  0.2725E-02  0.2725E-02  0.2796E-02  0.2796E-02  0.2763E-02  0.2763E-02  0.0000E+00  0.0000E+00  0.0000E+00  0.0000E+00  0.0000E+00  0.0000E+00  0.0000E+00  0.0000E+00  0.0000E+00  0.0000E+00
     -6.172  0.3217E-01  0.3217E-01  0.2877E-02  0.2877E-02  0.2940E-02  0.2940E-02  0.2923E-02  0.2923E-02  0.0000E+00  0.0000E+00  0.0000E+00  0.0000E+00  0.0000E+00  0.0000E+00  0.0000E+00  0.0000E+00  0.0000E+00  0.0000E+00
     -6.006  0.3353E-01  0.3353E-01  0.3036E-02  0.3036E-02  0.3083E-02  0.3083E-02  0.3110E-02  0.3110E-02  0.0000E+00  0.0000E+00  0.0000E+00  0.0000E+00  0.0000E+00  0.0000E+00  0.0000E+00  0.0000E+00  0.0000E+00  0.0000E+00
     -5.839  0.3506E-01  0.3506E-01  0.3205E-02  0.3205E-02  0.3238E-02  0.3238E-02  0.3323E-02  0.3323E-02  0.0000E+00  0.0000E+00  0.0000E+00  0.0000E+00  0.0000E+00  0.0000E+00  0.0000E+00  0.0000E+00  0.0000E+00  0.0000E+00
     -5.673  0.3943E-01  0.3943E-01  0.3585E-02  0.3585E-02  0.3429E-02  0.3429E-02  0.3929E-02  0.3929E-02  0.0000E+00  0.0000E+00  0.0000E+00  0.0000E+00  0.0000E+00  0.0000E+00  0.0000E+00  0.0000E+00  0.0000E+00  0.0000E+00
     -5.507  0.4031E-01  0.4031E-01  0.3698E-02  0.3698E-02  0.3615E-02  0.3615E-02  0.4036E-02  0.4036E-02  0.0000E+00  0.0000E+00  0.0000E+00  0.0000E+00  0.0000E+00  0.0000E+00  0.0000E+00  0.0000E+00  0.0000E+00  0.0000E+00