    4    4  100    2
  0.5717550E+01  0.2513094E-09  0.2513094E-09  0.4181402E-09  0.1500000E-16
   1.0000000000000000E-004
  CAR 
 unknown system                          
     16     96     16
 
  0.3742002E-15  0.3742002E-15  0.3742002E-15  0.8503401E-03
    1      -11.549777    -11.549785   1.000000   1.000000
    2       -5.019440     -5.019448   1.000000   1.000000
    3       -3.134938     -3.134939   1.000000   1.000000
    4        9.045689      9.045697   1.000000   1.000000
    5        9.045782      9.045789   1.000000   1.000000
    6       11.912332     11.912340   1.000000   1.000000
    7       12.686882     12.686892   1.000000   1.000000
    8       12.686988     12.686997   1.000000   1.000000
    9       17.850117     17.850125   0.000000   0.000000
   10       17.850213     17.850224   0.000000   0.000000
   11       18.428702     18.428710   0.000000   0.000000
   12       22.897495     22.897482   0.000000   0.000000
   13       23.197909     23.197922   0.000000   0.000000
   14       23.198034     23.198047   0.000000   0.000000
   15       31.118086     31.118063   0.000000   0.000000
   16       31.884358     31.884349   0.000000   0.000000
 
  0.7142857E-01  0.3742194E-15  0.3742002E-15  0.5102041E-02
    1      -11.408313    -11.408321   1.000000   1.000000
    2       -4.894733     -4.894741   1.000000   1.000000
    3       -2.996764     -2.996765   1.000000   1.000000
    4        8.344031      8.344038   1.000000   1.000000
    5        8.726338      8.726345   1.000000   1.000000
    6       11.692196     11.692203   1.000000   1.000000
    7       12.074767     12.074776   1.000000   1.000000
    8       12.403757     12.403766   1.000000   1.000000
    9       17.975312     17.975321   0.000000   0.000000
   10       18.261997     18.262006   0.000000   0.000000
   11       18.715567     18.715574   0.000000   0.000000
   12       23.291513     23.291502   0.000000   0.000000
   13       23.353375     23.353387   0.000000   0.000000
   14       23.692410     23.692423   0.000000   0.000000
   15       31.092521     31.092521   0.000000   0.000000
   16       31.216951     31.216930   0.000000   0.000000
 
  0.1428571E+00  0.3778240E-15  0.3742002E-15  0.5102041E-02
    1      -10.984735    -10.984743   1.000000   1.000000
    2       -4.521243     -4.521251   1.000000   1.000000
    3       -2.586650     -2.586651   1.000000   1.000000
    4        6.592349      6.592354   1.000000   1.000000
    5        7.959828      7.959834   1.000000   1.000000
    6       10.580008     10.580014   1.000000   1.000000
    7       11.082398     11.082405   1.000000   1.000000
    8       11.708590     11.708599   1.000000   1.000000
    9       18.110225     18.110231   0.000000   0.000000
   10       19.234732     19.234742   0.000000   0.000000
   11       19.322823     19.322830   0.000000   0.000000
   12       23.745931     23.745940   0.000000   0.000000
   13       24.212195     24.212189   0.000000   0.000000
   14       24.985908     24.985922   0.000000   0.000000
   15       28.989281     28.989281   0.000000   0.000000
   16       31.484745     31.484730   0.000000   0.000000
 
  0.2142857E+00  0.3806259E-15  0.3742002E-15  0.5102041E-02
    1      -10.281886    -10.281894   1.000000   1.000000
    2       -3.900994     -3.901002   1.000000   1.000000
    3       -1.920866     -1.920867   1.000000   1.000000
    4        4.362054      4.362056   1.000000   1.000000
    5        7.065836      7.065842   1.000000   1.000000
    6        8.686761      8.686766   1.000000   1.000000
    7       10.135710     10.135717   1.000000   1.000000
    8       10.879604     10.879613   1.000000   1.000000
    9       18.075710     18.075713   0.000000   0.000000
   10       19.977276     19.977283   0.000000   0.000000
   11       20.268070     20.268081   0.000000   0.000000
   12       24.274421     24.274425   0.000000   0.000000
   13       24.326948     24.326949   0.000000   0.000000
   14       26.728270     26.728286   0.000000   0.000000
   15       28.241901     28.241900   0.000000   0.000000
   16       31.327684     31.327693   0.000000   0.000000
 
  0.2857143E+00  0.3671018E-15  0.3742002E-15  0.5102041E-02
    1       -9.305975     -9.305983   1.000000   1.000000
    2       -3.038140     -3.038147   1.000000   1.000000
    3       -1.049966     -1.049967   1.000000   1.000000
    4        2.031229      2.031230   1.000000   1.000000
    5        6.250331      6.250337   1.000000   1.000000
    6        6.663669      6.663671   1.000000   1.000000
    7        8.904721      8.904726   1.000000   1.000000
    8       10.110371     10.110379   1.000000   1.000000
    9       17.921619     17.921619   0.000000   0.000000
   10       20.610914     20.610922   0.000000   0.000000
   11       20.986488     20.986499   0.000000   0.000000
   12       23.048781     23.048784   0.000000   0.000000
   13       24.826638     24.826636   0.000000   0.000000
   14       28.573524     28.573543   0.000000   0.000000
   15       29.609297     29.609299   0.000000   0.000000
   16       30.312074     30.312086   0.000000   0.000000
 
  0.3571429E+00  0.3813174E-15  0.3742002E-15  0.5102041E-02
    1       -8.070299     -8.070306   1.000000   1.000000
    2       -1.941127     -1.941133   1.000000   1.000000
    3       -0.695102     -0.695107   1.000000   1.000000
    4        0.452856      0.452858   1.000000   1.000000
    5        4.662354      4.662354   1.000000   1.000000
    6        5.619816      5.619822   1.000000   1.000000
    7        7.500125      7.500129   1.000000   1.000000
    8        9.510538      9.510546   1.000000   1.000000
    9       17.729360     17.729358   0.000000   0.000000
   10       21.194224     21.194232   0.000000   0.000000
   11       21.325655     21.325665   0.000000   0.000000
   12       21.859201     21.859205   0.000000   0.000000
   13       25.359586     25.359579   0.000000   0.000000
   14       29.161422     29.161431   0.000000   0.000000
   15       30.200278     30.200298   0.000000   0.000000
   16       31.314321     31.314326   0.000000   0.000000
 
  0.4285714E+00  0.3841193E-15  0.3742002E-15  0.5102041E-02
    1       -6.618699     -6.618705   1.000000   1.000000
    2       -2.578789     -2.578792   1.000000   1.000000
    3       -0.633228     -0.633234   1.000000   1.000000
    4        1.322586      1.322587   1.000000   1.000000
    5        2.785377      2.785376   1.000000   1.000000
    6        5.225458      5.225464   1.000000   1.000000
    7        6.154607      6.154611   1.000000   1.000000
    8        9.133825      9.133833   1.000000   1.000000
    9       17.570762     17.570759   0.000000   0.000000
   10       21.144769     21.144774   0.000000   0.000000
   11       21.430953     21.430962   0.000000   0.000000
   12       21.641989     21.641996   0.000000   0.000000
   13       25.886019     25.886010   0.000000   0.000000
   14       28.113583     28.113589   0.000000   0.000000
   15       31.312656     31.312678   0.000000   0.000000
   16       32.150905     32.150908   0.000000   0.000000
 
  0.5000000E+00  0.3542694E-15  0.3742002E-15  0.2551020E-02
    1       -5.460831     -5.460838   1.000000   1.000000
    2       -3.947662     -3.947665   1.000000   1.000000
    3        0.532457      0.532451   1.000000   1.000000
    4        1.425687      1.425687   1.000000   1.000000
    5        1.896005      1.896006   1.000000   1.000000
    6        5.091496      5.091501   1.000000   1.000000
    7        5.476159      5.476162   1.000000   1.000000
    8        9.005132      9.005140   1.000000   1.000000
    9       17.508470     17.508466   0.000000   0.000000
   10       20.912826     20.912831   0.000000   0.000000
   11       21.447460     21.447469   0.000000   0.000000
   12       21.813681     21.813688   0.000000   0.000000
   13       26.221861     26.221852   0.000000   0.000000
   14       27.567093     27.567099   0.000000   0.000000
   15       31.690177     31.690200   0.000000   0.000000
   16       32.408964     32.408967   0.000000   0.000000
 
  0.7142857E-01  0.7142857E-01  0.3742002E-15  0.5102041E-02
    1      -11.125789    -11.125796   1.000000   1.000000
    2       -4.645634     -4.645642   1.000000   1.000000
    3       -2.722554     -2.722555   1.000000   1.000000
    4        7.233009      7.233014   1.000000   1.000000
    5        8.054539      8.054546   1.000000   1.000000
    6       11.102992     11.103000   1.000000   1.000000
    7       11.295613     11.295620   1.000000   1.000000
    8       11.837951     11.837960   1.000000   1.000000
    9       18.325532     18.325541   0.000000   0.000000
   10       18.730643     18.730651   0.000000   0.000000
   11       19.171464     19.171471   0.000000   0.000000
   12       23.662328     23.662339   0.000000   0.000000
   13       23.948781     23.948774   0.000000   0.000000
   14       24.538461     24.538474   0.000000   0.000000
   15       29.962326     29.962329   0.000000   0.000000
   16       31.409408     31.409390   0.000000   0.000000
 
  0.1428571E+00  0.7142857E-01  0.3742002E-15  0.1020408E-01
    1      -10.562537    -10.562545   1.000000   1.000000
    2       -4.148770     -4.148778   1.000000   1.000000
    3       -2.183878     -2.183879   1.000000   1.000000
    4        5.401506      5.401509   1.000000   1.000000
    5        7.034126      7.034132   1.000000   1.000000
    6        9.542801      9.542807   1.000000   1.000000
    7       10.559492     10.559499   1.000000   1.000000
    8       10.947194     10.947202   1.000000   1.000000
    9       18.568526     18.568532   0.000000   0.000000
   10       19.557304     19.557313   0.000000   0.000000
   11       19.846977     19.846984   0.000000   0.000000
   12       24.210142     24.210150   0.000000   0.000000
   13       24.529943     24.529941   0.000000   0.000000
   14       25.918969     25.918982   0.000000   0.000000
   15       28.484424     28.484425   0.000000   0.000000
   16       30.474218     30.474218   0.000000   0.000000
 
  0.2142857E+00  0.7142857E-01  0.3742002E-15  0.1020408E-01
    1       -9.722966     -9.722973   1.000000   1.000000
    2       -3.407204     -3.407211   1.000000   1.000000
    3       -1.408928     -1.408929   1.000000   1.000000
    4        3.195796      3.195797   1.000000   1.000000
    5        6.076430      6.076436   1.000000   1.000000
    6        7.665880      7.665883   1.000000   1.000000
    7        9.506014      9.506020   1.000000   1.000000
    8       10.069832     10.069839   1.000000   1.000000
    9       18.503600     18.503603   0.000000   0.000000
   10       20.351266     20.351275   0.000000   0.000000
   11       20.563721     20.563729   0.000000   0.000000
   12       23.938742     23.938743   0.000000   0.000000
   13       24.820500     24.820503   0.000000   0.000000
   14       27.593979     27.593993   0.000000   0.000000
   15       28.579807     28.579810   0.000000   0.000000
   16       30.830834     30.830846   0.000000   0.000000
 
  0.2857143E+00  0.7142857E-01  0.3742002E-15  0.1020408E-01
    1       -8.616104     -8.616111   1.000000   1.000000
    2       -2.427056     -2.427063   1.000000   1.000000
    3       -0.540281     -0.540283   1.000000   1.000000
    4        1.025511      1.025512   1.000000   1.000000
    5        5.308169      5.308174   1.000000   1.000000
    6        5.692532      5.692533   1.000000   1.000000
    7        8.202165      8.202170   1.000000   1.000000
    8        9.348162      9.348169   1.000000   1.000000
    9       18.366357     18.366358   0.000000   0.000000
   10       20.372380     20.372386   0.000000   0.000000
   11       21.259465     21.259473   0.000000   0.000000
   12       23.266466     23.266471   0.000000   0.000000
   13       25.371683     25.371680   0.000000   0.000000
   14       29.300039     29.300055   0.000000   0.000000
   15       29.732432     29.732443   0.000000   0.000000
   16       29.958134     29.958140   0.000000   0.000000
 
  0.3571429E+00  0.7142857E-01  0.3742002E-15  0.1020408E-01
    1       -7.264500     -7.264506   1.000000   1.000000
    2       -1.520510     -1.520514   1.000000   1.000000
    3       -1.221863     -1.221869   1.000000   1.000000
    4        0.920281      0.920283   1.000000   1.000000
    5        3.768081      3.768081   1.000000   1.000000
    6        4.784199      4.784203   1.000000   1.000000
    7        6.802049      6.802052   1.000000   1.000000
    8        8.843635      8.843642   1.000000   1.000000
    9       18.279553     18.279552   0.000000   0.000000
   10       19.772371     19.772376   0.000000   0.000000
   11       21.874225     21.874233   0.000000   0.000000
   12       23.157360     23.157367   0.000000   0.000000
   13       25.863155     25.863148   0.000000   0.000000
   14       28.592257     28.592265   0.000000   0.000000
   15       30.763569     30.763589   0.000000   0.000000
   16       31.700771     31.700780   0.000000   0.000000
 
  0.4285714E+00  0.7142857E-01  0.3742002E-15  0.1020408E-01
    1       -5.786674     -5.786681   1.000000   1.000000
    2       -3.384961     -3.384965   1.000000   1.000000
    3        0.147200      0.147194   1.000000   1.000000
    4        1.812859      1.812860   1.000000   1.000000
    5        2.023979      2.023977   1.000000   1.000000
    6        4.544520      4.544525   1.000000   1.000000
    7        5.661212      5.661215   1.000000   1.000000
    8        8.584561      8.584568   1.000000   1.000000
    9       18.279889     18.279887   0.000000   0.000000
   10       19.284962     19.284967   0.000000   0.000000
   11       22.263007     22.263015   0.000000   0.000000
   12       23.181897     23.181905   0.000000   0.000000
   13       26.313520     26.313511   0.000000   0.000000
   14       27.715251     27.715257   0.000000   0.000000
   15       31.572407     31.572429   0.000000   0.000000
   16       32.312298     32.312302   0.000000   0.000000
 
  0.1428571E+00  0.1428571E+00  0.3742002E-15  0.5102041E-02
    1       -9.862454     -9.862461   1.000000   1.000000
    2       -3.530574     -3.530581   1.000000   1.000000
    3       -1.532990     -1.532991   1.000000   1.000000
    4        3.934410      3.934411   1.000000   1.000000
    5        5.585732      5.585737   1.000000   1.000000
    6        8.252867      8.252870   1.000000   1.000000
    7        9.757450      9.757456   1.000000   1.000000
    8        9.760655      9.760663   1.000000   1.000000
    9       19.307874     19.307882   0.000000   0.000000
   10       19.712593     19.712599   0.000000   0.000000
   11       20.652130     20.652138   0.000000   0.000000
   12       24.300303     24.300302   0.000000   0.000000
   13       25.040167     25.040176   0.000000   0.000000
   14       26.981495     26.981504   0.000000   0.000000
   15       28.022124     28.022127   0.000000   0.000000
   16       30.363312     30.363314   0.000000   0.000000
 
  0.2142857E+00  0.1428571E+00  0.3742002E-15  0.1020408E-01
    1       -8.891144     -8.891150   1.000000   1.000000
    2       -2.671594     -2.671600   1.000000   1.000000
    3       -0.697447     -0.697449   1.000000   1.000000
    4        2.101454      2.101454   1.000000   1.000000
    5        4.388605      4.388609   1.000000   1.000000
    6        6.653282      6.653284   1.000000   1.000000
    7        8.669378      8.669383   1.000000   1.000000
    8        8.700469      8.700475   1.000000   1.000000
    9       18.813375     18.813382   0.000000   0.000000
   10       20.541998     20.542003   0.000000   0.000000
   11       21.545535     21.545542   0.000000   0.000000
   12       24.013190     24.013191   0.000000   0.000000
   13       25.896008     25.896014   0.000000   0.000000
   14       28.124815     28.124819   0.000000   0.000000
   15       28.248356     28.248364   0.000000   0.000000
   16       30.141122     30.141133   0.000000   0.000000
 
  0.2857143E+00  0.1428571E+00  0.3742002E-15  0.1020408E-01
    1       -7.663160     -7.663167   1.000000   1.000000
    2       -1.581799     -1.581805   1.000000   1.000000
    3       -0.486948     -0.486953   1.000000   1.000000
    4        0.845344      0.845347   1.000000   1.000000
    5        3.624316      3.624320   1.000000   1.000000
    6        4.854837      4.854837   1.000000   1.000000
    7        7.380278      7.380283   1.000000   1.000000
    8        7.971753      7.971759   1.000000   1.000000
    9       18.165181     18.165187   0.000000   0.000000
   10       20.609739     20.609741   0.000000   0.000000
   11       22.423780     22.423789   0.000000   0.000000
   12       24.358160     24.358165   0.000000   0.000000
   13       26.478088     26.478086   0.000000   0.000000
   14       29.029635     29.029643   0.000000   0.000000
   15       29.316657     29.316662   0.000000   0.000000
   16       29.799972     29.799986   0.000000   0.000000
 
  0.3571429E+00  0.1428571E+00  0.3742002E-15  0.1020408E-01
    1       -6.223838     -6.223844   1.000000   1.000000
    2       -2.274293     -2.274297   1.000000   1.000000
    3       -0.287938     -0.287944   1.000000   1.000000
    4        1.643952      1.643953   1.000000   1.000000
    5        3.072013      3.072012   1.000000   1.000000
    6        3.260405      3.260408   1.000000   1.000000
    7        6.085362      6.085366   1.000000   1.000000
    8        7.548066      7.548071   1.000000   1.000000
    9       17.665870     17.665875   0.000000   0.000000
   10       20.376812     20.376812   0.000000   0.000000
   11       23.174657     23.174667   0.000000   0.000000
   12       24.839027     24.839035   0.000000   0.000000
   13       26.839189     26.839183   0.000000   0.000000
   14       28.041530     28.041536   0.000000   0.000000
   15       31.114536     31.114555   0.000000   0.000000
   16       31.159805     31.159814   0.000000   0.000000
 
  0.4285714E+00  0.1428571E+00  0.3742002E-15  0.5102041E-02
    1       -5.076407     -5.076414   1.000000   1.000000
    2       -3.607232     -3.607235   1.000000   1.000000
    3        0.847513      0.847507   1.000000   1.000000
    4        1.764419      1.764418   1.000000   1.000000
    5        2.101615      2.101615   1.000000   1.000000
    6        3.276781      3.276785   1.000000   1.000000
    7        5.378801      5.378804   1.000000   1.000000
    8        7.407850      7.407855   1.000000   1.000000
    9       17.481513     17.481518   0.000000   0.000000
   10       20.271116     20.271116   0.000000   0.000000
   11       23.501435     23.501445   0.000000   0.000000
   12       25.024849     25.024858   0.000000   0.000000
   13       27.087266     27.087258   0.000000   0.000000
   14       27.473110     27.473116   0.000000   0.000000
   15       31.607809     31.607830   0.000000   0.000000
   16       32.187987     32.187990   0.000000   0.000000
 
  0.2142857E+00  0.2142857E+00  0.3742002E-15  0.5102041E-02
    1       -7.797430     -7.797437   1.000000   1.000000
    2       -1.702616     -1.702622   1.000000   1.000000
    3       -0.126674     -0.126679   1.000000   1.000000
    4        1.243458      1.243460   1.000000   1.000000
    5        2.743517      2.743520   1.000000   1.000000
    6        5.555826      5.555826   1.000000   1.000000
    7        7.303794      7.303799   1.000000   1.000000
    8        7.617840      7.617845   1.000000   1.000000
    9       17.770564     17.770569   0.000000   0.000000
   10       22.007523     22.007529   0.000000   0.000000
   11       22.654106     22.654113   0.000000   0.000000
   12       24.376218     24.376220   0.000000   0.000000
   13       27.298215     27.298223   0.000000   0.000000
   14       28.087694     28.087697   0.000000   0.000000
   15       28.848952     28.848955   0.000000   0.000000
   16       29.264403     29.264412   0.000000   0.000000
 
  0.2857143E+00  0.2142857E+00  0.3742002E-15  0.1020408E-01
    1       -6.467678     -6.467684   1.000000   1.000000
    2       -1.155344     -1.155350   1.000000   1.000000
    3       -0.518723     -0.518729   1.000000   1.000000
    4        1.496136      1.496138   1.000000   1.000000
    5        1.991196      1.991200   1.000000   1.000000
    6        4.145137      4.145136   1.000000   1.000000
    7        6.400286      6.400291   1.000000   1.000000
    8        6.432339      6.432343   1.000000   1.000000
    9       16.772055     16.772059   0.000000   0.000000
   10       22.817188     22.817191   0.000000   0.000000
   11       23.728054     23.728062   0.000000   0.000000
   12       25.343784     25.343790   0.000000   0.000000
   13       28.106443     28.106449   0.000000   0.000000
   14       28.334707     28.334711   0.000000   0.000000
   15       28.982353     28.982358   0.000000   0.000000
   16       30.057716     30.057725   0.000000   0.000000
 
  0.3571429E+00  0.2142857E+00  0.3742002E-15  0.1020408E-01
    1       -5.018179     -5.018185   1.000000   1.000000
    2       -2.798022     -2.798027   1.000000   1.000000
    3        0.806849      0.806844   1.000000   1.000000
    4        1.215473      1.215474   1.000000   1.000000
    5        2.608917      2.608915   1.000000   1.000000
    6        2.814795      2.814799   1.000000   1.000000
    7        5.357452      5.357455   1.000000   1.000000
    8        6.017414      6.017418   1.000000   1.000000
    9       16.219047     16.219051   0.000000   0.000000
   10       22.901162     22.901165   0.000000   0.000000
   11       24.577662     24.577671   0.000000   0.000000
   12       26.360237     26.360245   0.000000   0.000000
   13       27.400515     27.400522   0.000000   0.000000
   14       28.425211     28.425208   0.000000   0.000000
   15       30.587650     30.587659   0.000000   0.000000
   16       31.352770     31.352787   0.000000   0.000000
 
  0.2857143E+00  0.2857143E+00  0.3742002E-15  0.5102041E-02
    1       -5.082213     -5.082219   1.000000   1.000000
    2       -2.062401     -2.062407   1.000000   1.000000
    3        0.332155      0.332157   1.000000   1.000000
    4        0.721050      0.721045   1.000000   1.000000
    5        2.824784      2.824787   1.000000   1.000000
    6        3.370710      3.370707   1.000000   1.000000
    7        5.123749      5.123753   1.000000   1.000000
    8        5.403279      5.403282   1.000000   1.000000
    9       15.752465     15.752469   0.000000   0.000000
   10       24.940793     24.940801   0.000000   0.000000
   11       25.170357     25.170364   0.000000   0.000000
   12       26.012902     26.012909   0.000000   0.000000
   13       27.417731     27.417738   0.000000   0.000000
   14       29.278854     29.278861   0.000000   0.000000
   15       30.169897     30.169907   0.000000   0.000000
   16       30.222209     30.222214   0.000000   0.000000
 
  0.3571429E+00  0.2857143E+00  0.3742002E-15  0.5102041E-02
    1       -3.930380     -3.930386   1.000000   1.000000
    2       -3.054721     -3.054726   1.000000   1.000000
    3       -0.146499     -0.146497   1.000000   1.000000
    4        1.793947      1.793942   1.000000   1.000000
    5        2.457617      2.457614   1.000000   1.000000
    6        3.609998      3.610001   1.000000   1.000000
    7        4.641434      4.641437   1.000000   1.000000
    8        4.681466      4.681470   1.000000   1.000000
    9       15.387793     15.387797   0.000000   0.000000
   10       25.703532     25.703540   0.000000   0.000000
   11       25.720347     25.720354   0.000000   0.000000
   12       26.772887     26.772893   0.000000   0.000000
   13       27.238625     27.238634   0.000000   0.000000
   14       29.342053     29.342060   0.000000   0.000000
   15       30.257548     30.257552   0.000000   0.000000
   16       31.149262     31.149266   0.000000   0.000000
 
  0.3742002E-15  0.3742002E-15  0.1666667E+00  0.1700680E-02
    1      -11.341406    -11.341414   1.000000   1.000000
    2       -6.490403     -6.490410   1.000000   1.000000
    3       -1.310274     -1.310276   1.000000   1.000000
    4        9.216071      9.216080   1.000000   1.000000
    5        9.216164      9.216171   1.000000   1.000000
    6       10.559980     10.559985   1.000000   1.000000
    7       12.292302     12.292311   1.000000   1.000000
    8       12.292402     12.292411   1.000000   1.000000
    9       18.269870     18.269879   0.000000   0.000000
   10       18.269965     18.269976   0.000000   0.000000
   11       19.224074     19.224082   0.000000   0.000000
   12       22.759010     22.758999   0.000000   0.000000
   13       22.784054     22.784066   0.000000   0.000000
   14       22.784175     22.784188   0.000000   0.000000
   15       31.176292     31.176271   0.000000   0.000000
   16       32.034272     32.034263   0.000000   0.000000
 
  0.7142857E-01  0.3742194E-15  0.1666667E+00  0.1020408E-01
    1      -11.200117    -11.200125   1.000000   1.000000
    2       -6.357161     -6.357168   1.000000   1.000000
    3       -1.184042     -1.184044   1.000000   1.000000
    4        8.516113      8.516120   1.000000   1.000000
    5        8.899206      8.899213   1.000000   1.000000
    6       10.457623     10.457629   1.000000   1.000000
    7       11.675879     11.675888   1.000000   1.000000
    8       12.011716     12.011725   1.000000   1.000000
    9       18.300422     18.300431   0.000000   0.000000
   10       18.687449     18.687458   0.000000   0.000000
   11       19.471838     19.471846   0.000000   0.000000
   12       22.850798     22.850806   0.000000   0.000000
   13       23.210279     23.210274   0.000000   0.000000
   14       23.277895     23.277908   0.000000   0.000000
   15       31.138400     31.138383   0.000000   0.000000
   16       31.619462     31.619458   0.000000   0.000000
 
  0.1428571E+00  0.3778240E-15  0.1666667E+00  0.1020408E-01
    1      -10.777073    -10.777081   1.000000   1.000000
    2       -5.958755     -5.958762   1.000000   1.000000
    3       -0.810058     -0.810060   1.000000   1.000000
    4        6.769801      6.769805   1.000000   1.000000
    5        8.137644      8.137651   1.000000   1.000000
    6        9.897985      9.897990   1.000000   1.000000
    7       10.414940     10.414947   1.000000   1.000000
    8       11.318696     11.318704   1.000000   1.000000
    9       18.254471     18.254477   0.000000   0.000000
   10       19.692263     19.692274   0.000000   0.000000
   11       19.859060     19.859068   0.000000   0.000000
   12       23.137326     23.137334   0.000000   0.000000
   13       24.247797     24.247795   0.000000   0.000000
   14       24.565624     24.565638   0.000000   0.000000
   15       29.540559     29.540562   0.000000   0.000000
   16       31.262252     31.262243   0.000000   0.000000
 
  0.2142857E+00  0.3806259E-15  0.1666667E+00  0.1020408E-01
    1      -10.075310    -10.075317   1.000000   1.000000
    2       -5.299386     -5.299393   1.000000   1.000000
    3       -0.207365     -0.207367   1.000000   1.000000
    4        4.552057      4.552059   1.000000   1.000000
    5        7.247696      7.247703   1.000000   1.000000
    6        8.059976      8.059979   1.000000   1.000000
    7        9.774996      9.775003   1.000000   1.000000
    8       10.489519     10.489527   1.000000   1.000000
    9       18.105721     18.105723   0.000000   0.000000
   10       20.058030     20.058038   0.000000   0.000000
   11       20.792264     20.792275   0.000000   0.000000
   12       23.147377     23.147380   0.000000   0.000000
   13       25.357473     25.357478   0.000000   0.000000
   14       26.283335     26.283351   0.000000   0.000000
   15       28.217496     28.217499   0.000000   0.000000
   16       30.794093     30.794094   0.000000   0.000000
 
  0.2857143E+00  0.3671018E-15  0.1666667E+00  0.1020408E-01
    1       -9.100907     -9.100914   1.000000   1.000000
    2       -4.387763     -4.387769   1.000000   1.000000
    3        0.530973      0.530971   1.000000   1.000000
    4        2.280130      2.280131   1.000000   1.000000
    5        5.973201      5.973202   1.000000   1.000000
    6        6.435185      6.435191   1.000000   1.000000
    7        8.975937      8.975943   1.000000   1.000000
    8        9.720147      9.720155   1.000000   1.000000
    9       17.956666     17.956665   0.000000   0.000000
   10       20.182750     20.182756   0.000000   0.000000
   11       21.596442     21.596453   0.000000   0.000000
   12       22.364547     22.364546   0.000000   0.000000
   13       26.073571     26.073575   0.000000   0.000000
   14       27.712239     27.712245   0.000000   0.000000
   15       28.074925     28.074943   0.000000   0.000000
   16       31.066246     31.066250   0.000000   0.000000
 
  0.3571429E+00  0.3813174E-15  0.1666667E+00  0.1020408E-01
    1       -7.867538     -7.867545   1.000000   1.000000
    2       -3.243970     -3.243976   1.000000   1.000000
    3       -0.290228     -0.290231   1.000000   1.000000
    4        1.761145      1.761146   1.000000   1.000000
    5        3.942284      3.942284   1.000000   1.000000
    6        5.806261      5.806267   1.000000   1.000000
    7        7.941701      7.941706   1.000000   1.000000
    8        9.119290      9.119298   1.000000   1.000000
    9       17.827052     17.827050   0.000000   0.000000
   10       20.366984     20.366989   0.000000   0.000000
   11       21.437978     21.437979   0.000000   0.000000
   12       22.007611     22.007621   0.000000   0.000000
   13       26.417267     26.417266   0.000000   0.000000
   14       26.968286     26.968292   0.000000   0.000000
   15       29.614888     29.614908   0.000000   0.000000
   16       32.504140     32.504150   0.000000   0.000000
 
  0.4285714E+00  0.3841193E-15  0.1666667E+00  0.1020408E-01