       N       E                     dE             d eps       ncg     rms          rms(c)
DAV:   1    -0.518866739576E+02   -0.51887E+02   -0.78621E+03  6384   0.809E+02
DAV:   2    -0.106304937761E+03   -0.54418E+02   -0.50690E+02  9088   0.186E+02
DAV:   3    -0.108130187385E+03   -0.18252E+01   -0.18210E+01  6416   0.305E+01
DAV:   4    -0.108140763793E+03   -0.10576E-01   -0.10576E-01  7464   0.293E+00
DAV:   5    -0.108140848355E+03   -0.84562E-04   -0.84562E-04  6408   0.231E-01    0.391E+01
DAV:   6    -0.562283097356E+02    0.51913E+02   -0.25599E+01  6376   0.308E+01    0.215E+01
DAV:   7    -0.360840950693E+02    0.20144E+02   -0.38012E+01  7488   0.370E+01    0.320E+00
DAV:   8    -0.362124767419E+02   -0.12838E+00   -0.12113E+00  6720   0.687E+00    0.140E+00
DAV:   9    -0.362620719929E+02   -0.49595E-01   -0.11022E-01  6888   0.331E+00    0.301E-01
DAV:  10    -0.362748246546E+02   -0.12753E-01   -0.16505E-02  6848   0.131E+00    0.938E-02
DAV:  11    -0.362756522202E+02   -0.82757E-03   -0.65257E-04  7600   0.276E-01    0.503E-02
DAV:  12    -0.362760333245E+02   -0.38110E-03   -0.19808E-04  6840   0.143E-01    0.103E-02
DAV:  13    -0.362760498689E+02   -0.16544E-04   -0.12283E-05  8000   0.332E-02    0.478E-03
DAV:  14    -0.362760510306E+02   -0.11617E-05   -0.97384E-07  5496   0.103E-02    0.321E-03
DAV:  15    -0.362760517395E+02   -0.70893E-06   -0.64322E-07  4560   0.678E-03
   1 F= -.22001602E+02 E0= -.22001602E+02  d E =-.220016E+02  mag=     0.0000
       N       E                     dE             d eps       ncg     rms          rms(c)
DAV:   1    -0.362791017113E+02   -0.30507E-02   -0.12841E-01  7472   0.281E+00    0.283E-01
DAV:   2    -0.362776272618E+02    0.14744E-02   -0.22806E-03  6960   0.311E-01    0.154E-01
DAV:   3    -0.362769745528E+02    0.65271E-03   -0.96851E-04  7376   0.194E-01    0.967E-03
DAV:   4    -0.362769722700E+02    0.22828E-05   -0.10594E-05  6880   0.236E-02    0.382E-03
DAV:   5    -0.362769722373E+02    0.32666E-07   -0.48689E-07  4784   0.618E-03
   2 F= -.22231722E+02 E0= -.22231722E+02  d E =-.230120E+00  mag=    -0.0000
       N       E                     dE             d eps       ncg     rms          rms(c)
DAV:   1    -0.361884725010E+02    0.88500E-01   -0.11864E+00  7488   0.870E+00    0.862E-01
DAV:   2    -0.361751765621E+02    0.13296E-01   -0.22321E-02  6888   0.975E-01    0.467E-01
DAV:   3    -0.361692388097E+02    0.59378E-02   -0.84572E-03  7424   0.585E-01    0.313E-02
DAV:   4    -0.361692099422E+02    0.28867E-04   -0.96386E-05  6936   0.727E-02    0.120E-02
DAV:   5    -0.361692049055E+02    0.50367E-05   -0.54764E-06  7432   0.198E-02    0.121E-03
DAV:   6    -0.361692048273E+02    0.78161E-07   -0.14089E-07  3872   0.280E-03
   3 F= -.22796807E+02 E0= -.22796807E+02  d E =-.795206E+00  mag=     0.0000
       N       E                     dE             d eps       ncg     rms          rms(c)
DAV:   1    -0.354669044397E+02    0.70230E+00   -0.50065E+00  7776   0.186E+01    0.177E+00
DAV:   2    -0.354137611961E+02    0.53143E-01   -0.10359E-01  6872   0.212E+00    0.958E-01
DAV:   3    -0.353895406858E+02    0.24221E-01   -0.32018E-02  7728   0.119E+00    0.706E-02
DAV:   4    -0.353894046089E+02    0.13608E-03   -0.40885E-04  6928   0.154E-01    0.262E-02
DAV:   5    -0.353893785402E+02    0.26069E-04   -0.27245E-05  7640   0.438E-02    0.295E-03
DAV:   6    -0.353893780539E+02    0.48630E-06   -0.85703E-07  5432   0.685E-03
   4 F= -.23297527E+02 E0= -.23297527E+02  d E =-.129593E+01  mag=     0.0000
       N       E                     dE             d eps       ncg     rms          rms(c)
DAV:   1    -0.353398462225E+02    0.49532E-01   -0.82084E-03  7744   0.751E-01    0.709E-02
DAV:   2    -0.353397582051E+02    0.88017E-04   -0.13017E-04  6976   0.796E-02    0.386E-02
DAV:   3    -0.353397206078E+02    0.37597E-04   -0.53916E-05  7728   0.487E-02    0.253E-03
DAV:   4    -0.353397208085E+02   -0.20073E-06   -0.65347E-07  4792   0.624E-03
   5 F= -.23298250E+02 E0= -.23298250E+02  d E =-.129665E+01  mag=     0.0000
       N       E                     dE             d eps       ncg     rms          rms(c)
DAV:   1    -0.353397082404E+02    0.12367E-04   -0.77943E-03  6560   0.651E-01    0.138E-02
DAV:   2    -0.353397115479E+02   -0.33075E-05   -0.61322E-05  7984   0.586E-02    0.929E-03
DAV:   3    -0.353397102480E+02    0.12999E-05   -0.25625E-06  7152   0.148E-02    0.166E-03
DAV:   4    -0.353397102417E+02    0.63488E-08   -0.30073E-07  4376   0.463E-03
   6 F= -.23298988E+02 E0= -.23298988E+02  d E =-.738189E-03  mag=     0.0000
       N       E                     dE             d eps       ncg     rms          rms(c)
DAV:   1    -0.353389182054E+02    0.79204E-03   -0.22149E-02  6528   0.110E+00    0.236E-02
DAV:   2    -0.353389275790E+02   -0.93736E-05   -0.17501E-04  8040   0.991E-02    0.159E-02
DAV:   3    -0.353389240374E+02    0.35416E-05   -0.74905E-06  7096   0.253E-02    0.263E-03
DAV:   4    -0.353389238565E+02    0.18089E-06   -0.88223E-07  5008   0.786E-03
   7 F= -.23299464E+02 E0= -.23299464E+02  d E =-.121434E-02  mag=     0.0000
       N       E                     dE             d eps       ncg     rms          rms(c)
DAV:   1    -0.353402599622E+02   -0.13359E-02   -0.39663E-04  7824   0.155E-01    0.143E-02
DAV:   2    -0.353402555236E+02    0.44386E-05   -0.10283E-05  7472   0.248E-02    0.837E-03
DAV:   3    -0.353402530916E+02    0.24321E-05   -0.38290E-06  7864   0.166E-02    0.104E-03
DAV:   4    -0.353402531616E+02   -0.70006E-07   -0.29232E-07  3408   0.394E-03
   8 F= -.23299534E+02 E0= -.23299534E+02  d E =-.701687E-04  mag=     0.0000
       N       E                     dE             d eps       ncg     rms          rms(c)
DAV:   1    -0.353426757202E+02   -0.24226E-02   -0.13962E-03  7872   0.290E-01    0.269E-02
DAV:   2    -0.353426601290E+02    0.15591E-04   -0.36339E-05  7424   0.467E-02    0.158E-02
DAV:   3    -0.353426520032E+02    0.81258E-05   -0.13516E-05  8048   0.311E-02    0.149E-03
DAV:   4    -0.353426520451E+02   -0.41878E-07   -0.10410E-06  4656   0.719E-03
   9 F= -.23299587E+02 E0= -.23299587E+02  d E =-.123078E-03  mag=     0.0000
