PROCAR lm decomposed
# of k-points:   96         # of bands:   16         # of ions:    4

 k-point     1 :    0.00000000 0.00000000 0.00000000     weight = 0.00085034

band     1 # energy  -11.54977735 # occ.  1.00000000
 
ion      s     py     pz     px    dxy    dyz    dz2    dxz  x2-y2    tot
    1  0.152  0.000  0.000  0.000  0.000  0.000  0.000  0.000  0.000  0.152
    2  0.152  0.000  0.000  0.000  0.000  0.000  0.000  0.000  0.000  0.152
    3  0.152  0.000  0.000  0.000  0.000  0.000  0.000  0.000  0.000  0.152
    4  0.152  0.000  0.000  0.000  0.000  0.000  0.000  0.000  0.000  0.152
tot    0.608  0.000  0.000  0.000  0.000  0.000  0.000  0.000  0.000  0.608
 
band     2 # energy   -5.01944019 # occ.  1.00000000
 
ion      s     py     pz     px    dxy    dyz    dz2    dxz  x2-y2    tot
    1  0.159  0.000  0.019  0.000  0.000  0.000  0.000  0.000  0.000  0.178
    2  0.159  0.000  0.019  0.000  0.000  0.000  0.000  0.000  0.000  0.178
    3  0.159  0.000  0.019  0.000  0.000  0.000  0.000  0.000  0.000  0.178
    4  0.159  0.000  0.019  0.000  0.000  0.000  0.000  0.000  0.000  0.178
tot    0.636  0.000  0.074  0.000  0.000  0.000  0.000  0.000  0.000  0.710
 
band     3 # energy   -3.13493812 # occ.  1.00000000
 
ion      s     py     pz     px    dxy    dyz    dz2    dxz  x2-y2    tot
    1  0.038  0.000  0.104  0.000  0.000  0.000  0.000  0.000  0.000  0.142
    2  0.038  0.000  0.104  0.000  0.000  0.000  0.000  0.000  0.000  0.142
    3  0.038  0.000  0.104  0.000  0.000  0.000  0.000  0.000  0.000  0.142
    4  0.038  0.000  0.104  0.000  0.000  0.000  0.000  0.000  0.000  0.142
tot    0.153  0.000  0.416  0.000  0.000  0.000  0.000  0.000  0.000  0.569
 
band     4 # energy    9.04568853 # occ.  1.00000000
 
ion      s     py     pz     px    dxy    dyz    dz2    dxz  x2-y2    tot
    1  0.000  0.146  0.000  0.049  0.000  0.000  0.000  0.000  0.000  0.196
    2  0.000  0.146  0.000  0.049  0.000  0.000  0.000  0.000  0.000  0.196
    3  0.000  0.146  0.000  0.049  0.000  0.000  0.000  0.000  0.000  0.196
    4  0.000  0.146  0.000  0.049  0.000  0.000  0.000  0.000  0.000  0.196
tot    0.000  0.585  0.000  0.197  0.000  0.000  0.000  0.000  0.000  0.782
 
band     5 # energy    9.04578161 # occ.  1.00000000
 
ion      s     py     pz     px    dxy    dyz    dz2    dxz  x2-y2    tot
    1  0.000  0.049  0.000  0.146  0.000  0.000  0.000  0.000  0.000  0.196
    2  0.000  0.049  0.000  0.146  0.000  0.000  0.000  0.000  0.000  0.196
    3  0.000  0.049  0.000  0.146  0.000  0.000  0.000  0.000  0.000  0.196
    4  0.000  0.049  0.000  0.146  0.000  0.000  0.000  0.000  0.000  0.196
tot    0.000  0.197  0.000  0.585  0.000  0.000  0.000  0.000  0.000  0.782
 
band     6 # energy   11.91233218 # occ.  1.00000000
 
ion      s     py     pz     px    dxy    dyz    dz2    dxz  x2-y2    tot
    1  0.000  0.000  0.200  0.000  0.000  0.000  0.000  0.000  0.000  0.200
    2  0.000  0.000  0.200  0.000  0.000  0.000  0.000  0.000  0.000  0.200
    3  0.000  0.000  0.200  0.000  0.000  0.000  0.000  0.000  0.000  0.200
    4  0.000  0.000  0.200  0.000  0.000  0.000  0.000  0.000  0.000  0.200
tot    0.000  0.000  0.799  0.000  0.000  0.000  0.000  0.000  0.000  0.799
 
band     7 # energy   12.68688248 # occ.  1.00000000
 
ion      s     py     pz     px    dxy    dyz    dz2    dxz  x2-y2    tot
    1  0.000  0.157  0.000  0.052  0.000  0.000  0.000  0.000  0.000  0.209
    2  0.000  0.157  0.000  0.052  0.000  0.000  0.000  0.000  0.000  0.209
    3  0.000  0.157  0.000  0.052  0.000  0.000  0.000  0.000  0.000  0.209
    4  0.000  0.157  0.000  0.052  0.000  0.000  0.000  0.000  0.000  0.209
tot    0.000  0.626  0.000  0.209  0.000  0.000  0.000  0.000  0.000  0.835
 
band     8 # energy   12.68698755 # occ.  1.00000000
 
ion      s     py     pz     px    dxy    dyz    dz2    dxz  x2-y2    tot
    1  0.000  0.052  0.000  0.157  0.000  0.000  0.000  0.000  0.000  0.209
    2  0.000  0.052  0.000  0.157  0.000  0.000  0.000  0.000  0.000  0.209
    3  0.000  0.052  0.000  0.157  0.000  0.000  0.000  0.000  0.000  0.209
    4  0.000  0.052  0.000  0.157  0.000  0.000  0.000  0.000  0.000  0.209
tot    0.000  0.209  0.000  0.626  0.000  0.000  0.000  0.000  0.000  0.835
 
band     9 # energy   17.85011663 # occ.  0.00000000
 
ion      s     py     pz     px    dxy    dyz    dz2    dxz  x2-y2    tot
    1  0.000  0.034  0.000  0.110  0.000  0.000  0.000  0.000  0.000  0.144
    2  0.000  0.034  0.000  0.110  0.000  0.000  0.000  0.000  0.000  0.144
    3  0.000  0.034  0.000  0.110  0.000  0.000  0.000  0.000  0.000  0.144
    4  0.000  0.034  0.000  0.110  0.000  0.000  0.000  0.000  0.000  0.144
tot    0.000  0.138  0.000  0.439  0.000  0.000  0.000  0.000  0.000  0.577
 
band    10 # energy   17.85021262 # occ.  0.00000000
 
ion      s     py     pz     px    dxy    dyz    dz2    dxz  x2-y2    tot
    1  0.000  0.110  0.000  0.034  0.000  0.000  0.000  0.000  0.000  0.144
    2  0.000  0.110  0.000  0.034  0.000  0.000  0.000  0.000  0.000  0.144
    3  0.000  0.110  0.000  0.034  0.000  0.000  0.000  0.000  0.000  0.144
    4  0.000  0.110  0.000  0.034  0.000  0.000  0.000  0.000  0.000  0.144
tot    0.000  0.439  0.000  0.138  0.000  0.000  0.000  0.000  0.000  0.577
 
band    11 # energy   18.42870196 # occ.  0.00000000
 
ion      s     py     pz     px    dxy    dyz    dz2    dxz  x2-y2    tot
    1  0.002  0.000  0.152  0.000  0.000  0.000  0.000  0.000  0.000  0.154
    2  0.002  0.000  0.152  0.000  0.000  0.000  0.000  0.000  0.000  0.154
    3  0.002  0.000  0.152  0.000  0.000  0.000  0.000  0.000  0.000  0.154
    4  0.002  0.000  0.152  0.000  0.000  0.000  0.000  0.000  0.000  0.154
tot    0.008  0.000  0.606  0.000  0.000  0.000  0.000  0.000  0.000  0.614
 
band    12 # energy   22.89749457 # occ.  0.00000000
 
ion      s     py     pz     px    dxy    dyz    dz2    dxz  x2-y2    tot
    1  0.142  0.000  0.006  0.000  0.000  0.000  0.000  0.000  0.000  0.148
    2  0.142  0.000  0.006  0.000  0.000  0.000  0.000  0.000  0.000  0.148
    3  0.142  0.000  0.006  0.000  0.000  0.000  0.000  0.000  0.000  0.148
    4  0.142  0.000  0.006  0.000  0.000  0.000  0.000  0.000  0.000  0.148
tot    0.568  0.000  0.025  0.000  0.000  0.000  0.000  0.000  0.000  0.592
 
band    13 # energy   23.19790931 # occ.  0.00000000
 
ion      s     py     pz     px    dxy    dyz    dz2    dxz  x2-y2    tot
    1  0.000  0.038  0.000  0.119  0.000  0.000  0.000  0.000  0.000  0.157
    2  0.000  0.038  0.000  0.119  0.000  0.000  0.000  0.000  0.000  0.157
    3  0.000  0.038  0.000  0.119  0.000  0.000  0.000  0.000  0.000  0.157
    4  0.000  0.038  0.000  0.119  0.000  0.000  0.000  0.000  0.000  0.157
tot    0.000  0.151  0.000  0.477  0.000  0.000  0.000  0.000  0.000  0.629
 
band    14 # energy   23.19803387 # occ.  0.00000000
 
ion      s     py     pz     px    dxy    dyz    dz2    dxz  x2-y2    tot
    1  0.000  0.119  0.000  0.038  0.000  0.000  0.000  0.000  0.000  0.157
    2  0.000  0.119  0.000  0.038  0.000  0.000  0.000  0.000  0.000  0.157
    3  0.000  0.119  0.000  0.038  0.000  0.000  0.000  0.000  0.000  0.157
    4  0.000  0.119  0.000  0.038  0.000  0.000  0.000  0.000  0.000  0.157
tot    0.000  0.477  0.000  0.151  0.000  0.000  0.000  0.000  0.000  0.629
 
band    15 # energy   31.11808561 # occ.  0.00000000
 
ion      s     py     pz     px    dxy    dyz    dz2    dxz  x2-y2    tot
    1  0.211  0.000  0.004  0.000  0.000  0.000  0.000  0.000  0.000  0.215
    2  0.211  0.000  0.004  0.000  0.000  0.000  0.000  0.000  0.000  0.215
    3  0.211  0.000  0.004  0.000  0.000  0.000  0.000  0.000  0.000  0.215
    4  0.211  0.000  0.004  0.000  0.000  0.000  0.000  0.000  0.000  0.215
tot    0.845  0.000  0.015  0.000  0.000  0.000  0.000  0.000  0.000  0.860
 
band    16 # energy   31.88435777 # occ.  0.00000000
 
ion      s     py     pz     px    dxy    dyz    dz2    dxz  x2-y2    tot
    1  0.046  0.000  0.000  0.000  0.000  0.000  0.000  0.000  0.000  0.046
    2  0.046  0.000  0.000  0.000  0.000  0.000  0.000  0.000  0.000  0.046
    3  0.046  0.000  0.000  0.000  0.000  0.000  0.000  0.000  0.000  0.046
    4  0.046  0.000  0.000  0.000  0.000  0.000  0.000  0.000  0.000  0.046
tot    0.184  0.000  0.001  0.000  0.000  0.000  0.000  0.000  0.000  0.185
 

 k-point     2 :    0.07142857 0.00000000 0.00000000     weight = 0.00510204

band     1 # energy  -11.40831322 # occ.  1.00000000
 
ion      s     py     pz     px    dxy    dyz    dz2    dxz  x2-y2    tot
    1  0.151  0.000  0.000  0.001  0.000  0.000  0.000  0.000  0.000  0.152
    2  0.151  0.000  0.000  0.001  0.000  0.000  0.000  0.000  0.000  0.152
    3  0.151  0.000  0.000  0.001  0.000  0.000  0.000  0.000  0.000  0.152
    4  0.151  0.000  0.000  0.001  0.000  0.000  0.000  0.000  0.000  0.152
tot    0.605  0.001  0.000  0.003  0.000  0.000  0.000  0.000  0.000  0.609
 
band     2 # energy   -4.89473265 # occ.  1.00000000
 
ion      s     py     pz     px    dxy    dyz    dz2    dxz  x2-y2    tot
    1  0.158  0.000  0.019  0.001  0.000  0.000  0.000  0.000  0.000  0.178
    2  0.158  0.000  0.019  0.001  0.000  0.000  0.000  0.000  0.000  0.178
    3  0.158  0.000  0.019  0.001  0.000  0.000  0.000  0.000  0.000  0.178
    4  0.158  0.000  0.019  0.001  0.000  0.000  0.000  0.000  0.000  0.178
tot    0.631  0.002  0.074  0.005  0.000  0.000  0.000  0.000  0.000  0.711
 
band     3 # energy   -2.99676357 # occ.  1.00000000
 
ion      s     py     pz     px    dxy    dyz    dz2    dxz  x2-y2    tot
    1  0.038  0.000  0.104  0.000  0.000  0.000  0.000  0.000  0.000  0.143
    2  0.038  0.000  0.104  0.000  0.000  0.000  0.000  0.000  0.000  0.143
    3  0.038  0.000  0.104  0.000  0.000  0.000  0.000  0.000  0.000  0.143
    4  0.038  0.000  0.104  0.000  0.000  0.000  0.000  0.000  0.000  0.143
tot    0.153  0.000  0.417  0.000  0.000  0.000  0.000  0.000  0.000  0.571
 
band     4 # energy    8.34403091 # occ.  1.00000000
 
ion      s     py     pz     px    dxy    dyz    dz2    dxz  x2-y2    tot
    1  0.008  0.046  0.000  0.137  0.000  0.000  0.000  0.000  0.000  0.191
    2  0.008  0.046  0.000  0.137  0.000  0.000  0.000  0.000  0.000  0.191
    3  0.008  0.046  0.000  0.137  0.000  0.000  0.000  0.000  0.000  0.191
    4  0.008  0.046  0.000  0.137  0.000  0.000  0.000  0.000  0.000  0.191
tot    0.032  0.183  0.001  0.550  0.000  0.000  0.000  0.000  0.000  0.766
 
band     5 # energy    8.72633754 # occ.  1.00000000
 
ion      s     py     pz     px    dxy    dyz    dz2    dxz  x2-y2    tot
    1  0.000  0.145  0.000  0.048  0.000  0.000  0.000  0.000  0.000  0.193
    2  0.000  0.145  0.000  0.048  0.000  0.000  0.000  0.000  0.000  0.193
    3  0.000  0.145  0.000  0.048  0.000  0.000  0.000  0.000  0.000  0.193
    4  0.000  0.145  0.000  0.048  0.000  0.000  0.000  0.000  0.000  0.193
tot    0.000  0.579  0.000  0.193  0.000  0.000  0.000  0.000  0.000  0.773
 
band     6 # energy   11.69219591 # occ.  1.00000000
 
ion      s     py     pz     px    dxy    dyz    dz2    dxz  x2-y2    tot
    1  0.000  0.001  0.194  0.003  0.000  0.000  0.000  0.000  0.000  0.199
    2  0.000  0.001  0.194  0.003  0.000  0.000  0.000  0.000  0.000  0.199
    3  0.000  0.001  0.194  0.003  0.000  0.000  0.000  0.000  0.000  0.199
    4  0.000  0.001  0.194  0.003  0.000  0.000  0.000  0.000  0.000  0.199
tot    0.000  0.005  0.777  0.014  0.000  0.000  0.000  0.000  0.000  0.795
 
band     7 # energy   12.07476696 # occ.  1.00000000
 
ion      s     py     pz     px    dxy    dyz    dz2    dxz  x2-y2    tot
    1  0.005  0.049  0.005  0.147  0.000  0.000  0.000  0.000  0.000  0.206
    2  0.005  0.049  0.005  0.147  0.000  0.000  0.000  0.000  0.000  0.206
    3  0.005  0.049  0.005  0.147  0.000  0.000  0.000  0.000  0.000  0.206
    4  0.005  0.049  0.005  0.147  0.000  0.000  0.000  0.000  0.000  0.206
tot    0.018  0.197  0.018  0.590  0.000  0.000  0.000  0.000  0.000  0.823
 
band     8 # energy   12.40375662 # occ.  1.00000000
 
ion      s     py     pz     px    dxy    dyz    dz2    dxz  x2-y2    tot
    1  0.000  0.155  0.000  0.052  0.000  0.000  0.000  0.000  0.000  0.207
    2  0.000  0.155  0.000  0.052  0.000  0.000  0.000  0.000  0.000  0.207
    3  0.000  0.155  0.000  0.052  0.000  0.000  0.000  0.000  0.000  0.207
    4  0.000  0.155  0.000  0.052  0.000  0.000  0.000  0.000  0.000  0.207
tot    0.000  0.621  0.000  0.207  0.000  0.000  0.000  0.000  0.000  0.829
 
band     9 # energy   17.97531200 # occ.  0.00000000
 
ion      s     py     pz     px    dxy    dyz    dz2    dxz  x2-y2    tot
    1  0.005  0.033  0.005  0.099  0.000  0.000  0.000  0.000  0.000  0.143
    2  0.005  0.033  0.005  0.099  0.000  0.000  0.000  0.000  0.000  0.143
    3  0.005  0.033  0.005  0.099  0.000  0.000  0.000  0.000  0.000  0.143
    4  0.005  0.033  0.005  0.099  0.000  0.000  0.000  0.000  0.000  0.143
tot    0.021  0.132  0.021  0.397  0.000  0.000  0.000  0.000  0.000  0.571
 
band    10 # energy   18.26199670 # occ.  0.00000000
 
ion      s     py     pz     px    dxy    dyz    dz2    dxz  x2-y2    tot
    1  0.000  0.110  0.000  0.037  0.000  0.000  0.000  0.000  0.000  0.147
    2  0.000  0.110  0.000  0.037  0.000  0.000  0.000  0.000  0.000  0.147
    3  0.000  0.110  0.000  0.037  0.000  0.000  0.000  0.000  0.000  0.147
    4  0.000  0.110  0.000  0.037  0.000  0.000  0.000  0.000  0.000  0.147
tot    0.000  0.442  0.000  0.147  0.000  0.000  0.000  0.000  0.000  0.589
 
band    11 # energy   18.71556652 # occ.  0.00000000
 
ion      s     py     pz     px    dxy    dyz    dz2    dxz  x2-y2    tot
    1  0.004  0.001  0.147  0.003  0.000  0.000  0.000  0.000  0.000  0.155
    2  0.004  0.001  0.147  0.003  0.000  0.000  0.000  0.000  0.000  0.155
    3  0.004  0.001  0.147  0.003  0.000  0.000  0.000  0.000  0.000  0.155
    4  0.004  0.001  0.147  0.003  0.000  0.000  0.000  0.000  0.000  0.155
tot    0.014  0.005  0.588  0.014  0.000  0.000  0.000  0.000  0.000  0.620
 
band    12 # energy   23.29151289 # occ.  0.00000000
 
ion      s     py     pz     px    dxy    dyz    dz2    dxz  x2-y2    tot
    1  0.132  0.003  0.007  0.009  0.000  0.000  0.000  0.000  0.000  0.150
    2  0.132  0.003  0.007  0.009  0.000  0.000  0.000  0.000  0.000  0.150
    3  0.132  0.003  0.007  0.009  0.000  0.000  0.000  0.000  0.000  0.150
    4  0.132  0.003  0.007  0.009  0.000  0.000  0.000  0.000  0.000  0.150
tot    0.529  0.012  0.027  0.035  0.000  0.000  0.000  0.000  0.000  0.602
 
band    13 # energy   23.35337525 # occ.  0.00000000
 
ion      s     py     pz     px    dxy    dyz    dz2    dxz  x2-y2    tot
    1  0.003  0.038  0.001  0.114  0.000  0.000  0.000  0.000  0.000  0.156
    2  0.003  0.038  0.001  0.114  0.000  0.000  0.000  0.000  0.000  0.156
    3  0.003  0.038  0.001  0.114  0.000  0.000  0.000  0.000  0.000  0.156
    4  0.003  0.038  0.001  0.114  0.000  0.000  0.000  0.000  0.000  0.156
tot    0.013  0.152  0.004  0.455  0.000  0.000  0.000  0.000  0.000  0.624
 
band    14 # energy   23.69240954 # occ.  0.00000000
 
ion      s     py     pz     px    dxy    dyz    dz2    dxz  x2-y2    tot
    1  0.000  0.120  0.000  0.040  0.000  0.000  0.000  0.000  0.000  0.160
    2  0.000  0.120  0.000  0.040  0.000  0.000  0.000  0.000  0.000  0.160
    3  0.000  0.120  0.000  0.040  0.000  0.000  0.000  0.000  0.000  0.160
    4  0.000  0.120  0.000  0.040  0.000  0.000  0.000  0.000  0.000  0.160
tot    0.000  0.481  0.000  0.160  0.000  0.000  0.000  0.000  0.000  0.641
 
band    15 # energy   31.09252088 # occ.  0.00000000
 
ion      s     py     pz     px    dxy    dyz    dz2    dxz  x2-y2    tot
    1  0.010  0.003  0.002  0.009  0.000  0.000  0.000  0.000  0.000  0.024
    2  0.010  0.003  0.002  0.009  0.000  0.000  0.000  0.000  0.000  0.024
    3  0.010  0.003  0.002  0.009  0.000  0.000  0.000  0.000  0.000  0.024
    4  0.010  0.003  0.002  0.009  0.000  0.000  0.000  0.000  0.000  0.024
tot    0.039  0.012  0.008  0.036  0.000  0.000  0.000  0.000  0.000  0.095
 
band    16 # energy   31.21695131 # occ.  0.00000000
 
ion      s     py     pz     px    dxy    dyz    dz2    dxz  x2-y2    tot
    1  0.204  0.002  0.004  0.005  0.000  0.000  0.000  0.000  0.000  0.215
    2  0.204  0.002  0.004  0.005  0.000  0.000  0.000  0.000  0.000  0.215
    3  0.204  0.002  0.004  0.005  0.000  0.000  0.000  0.000  0.000  0.215
    4  0.204  0.002  0.004  0.005  0.000  0.000  0.000  0.000  0.000  0.215
tot    0.815  0.007  0.016  0.022  0.000  0.000  0.000  0.000  0.000  0.860
 

 k-point     3 :    0.14285714 0.00000000 0.00000000     weight = 0.00510204

band     1 # energy  -10.98473506 # occ.  1.00000000
 
ion      s     py     pz     px    dxy    dyz    dz2    dxz  x2-y2    tot
    1  0.149  0.001  0.000  0.003  0.000  0.000  0.000  0.000  0.000  0.153
    2  0.149  0.001  0.000  0.003  0.000  0.000  0.000  0.000  0.000  0.153
    3  0.149  0.001  0.000  0.003  0.000  0.000  0.000  0.000  0.000  0.153
    4  0.149  0.001  0.000  0.003  0.000  0.000  0.000  0.000  0.000  0.153
tot    0.595  0.004  0.000  0.013  0.000  0.000  0.000  0.000  0.000  0.612
 
band     2 # energy   -4.52124328 # occ.  1.00000000
 
ion      s     py     pz     px    dxy    dyz    dz2    dxz  x2-y2    tot
    1  0.154  0.002  0.019  0.005  0.000  0.000  0.000  0.000  0.000  0.179
    2  0.154  0.002  0.019  0.005  0.000  0.000  0.000  0.000  0.000  0.179
    3  0.154  0.002  0.019  0.005  0.000  0.000  0.000  0.000  0.000  0.179
    4  0.154  0.002  0.019  0.005  0.000  0.000  0.000  0.000  0.000  0.179
tot    0.616  0.006  0.074  0.018  0.000  0.000  0.000  0.000  0.000  0.714
 
band     3 # energy   -2.58665010 # occ.  1.00000000
 
ion      s     py     pz     px    dxy    dyz    dz2    dxz  x2-y2    tot
    1  0.039  0.000  0.105  0.000  0.000  0.000  0.000  0.000  0.000  0.144
    2  0.039  0.000  0.105  0.000  0.000  0.000  0.000  0.000  0.000  0.144
    3  0.039  0.000  0.105  0.000  0.000  0.000  0.000  0.000  0.000  0.144
    4  0.039  0.000  0.105  0.000  0.000  0.000  0.000  0.000  0.000  0.144
tot    0.155  0.001  0.420  0.002  0.000  0.000  0.000  0.000  0.000  0.576
 
band     4 # energy    6.59234948 # occ.  1.00000000
 
ion      s     py     pz     px    dxy    dyz    dz2    dxz  x2-y2    tot
    1  0.024  0.040  0.001  0.119  0.000  0.000  0.000  0.000  0.000  0.183
    2  0.024  0.040  0.001  0.119  0.000  0.000  0.000  0.000  0.000  0.183
    3  0.024  0.040  0.001  0.119  0.000  0.000  0.000  0.000  0.000  0.183
    4  0.024  0.040  0.001  0.119  0.000  0.000  0.000  0.000  0.000  0.183
tot    0.094  0.159  0.003  0.476  0.000  0.000  0.000  0.000  0.000  0.732
 
band     5 # energy    7.95982764 # occ.  1.00000000
 
ion      s     py     pz     px    dxy    dyz    dz2    dxz  x2-y2    tot
    1  0.000  0.142  0.000  0.047  0.000  0.000  0.000  0.000  0.000  0.189
    2  0.000  0.142  0.000  0.047  0.000  0.000  0.000  0.000  0.000  0.189
    3  0.000  0.142  0.000  0.047  0.000  0.000  0.000  0.000  0.000  0.189
    4  0.000  0.142  0.000  0.047  0.000  0.000  0.000  0.000  0.000  0.189
tot    0.000  0.566  0.000  0.189  0.000  0.000  0.000  0.000  0.000  0.755
 
band     6 # energy   10.58000761 # occ.  1.00000000
 
ion      s     py     pz     px    dxy    dyz    dz2    dxz  x2-y2    tot
    1  0.016  0.044  0.010  0.131  0.000  0.000  0.000  0.000  0.000  0.200
    2  0.016  0.044  0.010  0.131  0.000  0.000  0.000  0.000  0.000  0.200
    3  0.016  0.044  0.010  0.131  0.000  0.000  0.000  0.000  0.000  0.200
    4  0.016  0.044  0.010  0.131  0.000  0.000  0.000  0.000  0.000  0.200
tot    0.062  0.174  0.042  0.523  0.000  0.000  0.000  0.000  0.000  0.801
 
band     7 # energy   11.08239789 # occ.  1.00000000
 
ion      s     py     pz     px    dxy    dyz    dz2    dxz  x2-y2    tot
    1  0.001  0.003  0.182  0.010  0.000  0.000  0.000  0.000  0.000  0.196
    2  0.001  0.003  0.182  0.010  0.000  0.000  0.000  0.000  0.000  0.196
    3  0.001  0.003  0.182  0.010  0.000  0.000  0.000  0.000  0.000  0.196
    4  0.001  0.003  0.182  0.010  0.000  0.000  0.000  0.000  0.000  0.196
tot    0.004  0.013  0.727  0.040  0.000  0.000  0.000  0.000  0.000  0.784
 
band     8 # energy   11.70858979 # occ.  1.00000000
 
ion      s     py     pz     px    dxy    dyz    dz2    dxz  x2-y2    tot
    1  0.000  0.153  0.000  0.051  0.000  0.000  0.000  0.000  0.000  0.204
    2  0.000  0.153  0.000  0.051  0.000  0.000  0.000  0.000  0.000  0.204
    3  0.000  0.153  0.000  0.051  0.000  0.000  0.000  0.000  0.000  0.204
    4  0.000  0.153  0.000  0.051  0.000  0.000  0.000  0.000  0.000  0.204
tot    0.000  0.611  0.000  0.204  0.000  0.000  0.000  0.000  0.000  0.815
 
band     9 # energy   18.11022487 # occ.  0.00000000
 
ion      s     py     pz     px    dxy    dyz    dz2    dxz  x2-y2    tot
    1  0.021  0.025  0.015  0.075  0.000  0.000  0.000  0.000  0.000  0.136
    2  0.021  0.025  0.015  0.075  0.000  0.000  0.000  0.000  0.000  0.136
    3  0.021  0.025  0.015  0.075  0.000  0.000  0.000  0.000  0.000  0.136
    4  0.021  0.025  0.015  0.075  0.000  0.000  0.000  0.000  0.000  0.136
tot    0.083  0.100  0.061  0.300  0.000  0.000  0.000  0.000  0.000  0.544
 
band    10 # energy   19.23473191 # occ.  0.00000000
 
ion      s     py     pz     px    dxy    dyz    dz2    dxz  x2-y2    tot
    1  0.000  0.114  0.000  0.038  0.000  0.000  0.000  0.000  0.000  0.153
    2  0.000  0.114  0.000  0.038  0.000  0.000  0.000  0.000  0.000  0.153
    3  0.000  0.114  0.000  0.038  0.000  0.000  0.000  0.000  0.000  0.153
    4  0.000  0.114  0.000  0.038  0.000  0.000  0.000  0.000  0.000  0.153
tot    0.000  0.458  0.000  0.152  0.000  0.000  0.000  0.000  0.000  0.610
 
band    11 # energy   19.32282251 # occ.  0.00000000
 
ion      s     py     pz     px    dxy    dyz    dz2    dxz  x2-y2    tot
    1  0.006  0.002  0.140  0.007  0.000  0.000  0.000  0.000  0.000  0.155
    2  0.006  0.002  0.140  0.007  0.000  0.000  0.000  0.000  0.000  0.155
    3  0.006  0.002  0.140  0.007  0.000  0.000  0.000  0.000  0.000  0.155
    4  0.006  0.002  0.140  0.007  0.000  0.000  0.000  0.000  0.000  0.155
tot    0.025  0.009  0.560  0.028  0.000  0.000  0.000  0.000  0.000  0.622
 
band    12 # energy   23.74593064 # occ.  0.00000000
 
ion      s     py     pz     px    dxy    dyz    dz2    dxz  x2-y2    tot
    1  0.017  0.033  0.004  0.099  0.000  0.000  0.000  0.000  0.000  0.153
    2  0.017  0.033  0.004  0.099  0.000  0.000  0.000  0.000  0.000  0.153
    3  0.017  0.033  0.004  0.099  0.000  0.000  0.000  0.000  0.000  0.153
    4  0.017  0.033  0.004  0.099  0.000  0.000  0.000  0.000  0.000  0.153
tot    0.068  0.132  0.018  0.395  0.000  0.000  0.000  0.000  0.000  0.612
 
band    13 # energy   24.21219497 # occ.  0.00000000
 
ion      s     py     pz     px    dxy    dyz    dz2    dxz  x2-y2    tot
    1  0.104  0.010  0.010  0.029  0.000  0.000  0.000  0.000  0.000  0.152
    2  0.104  0.010  0.010  0.029  0.000  0.000  0.000  0.000  0.000  0.152
    3  0.104  0.010  0.010  0.029  0.000  0.000  0.000  0.000  0.000  0.152
    4  0.104  0.010  0.010  0.029  0.000  0.000  0.000  0.000  0.000  0.152
tot    0.414  0.039  0.041  0.116  0.000  0.000  0.000  0.000  0.000  0.610
 
band    14 # energy   24.98590764 # occ.  0.00000000
 
ion      s     py     pz     px    dxy    dyz    dz2    dxz  x2-y2    tot
    1  0.000  0.126  0.000  0.042  0.000  0.000  0.000  0.000  0.000  0.168
    2  0.000  0.126  0.000  0.042  0.000  0.000  0.000  0.000  0.000  0.168
    3  0.000  0.126  0.000  0.042  0.000  0.000  0.000  0.000  0.000  0.168
    4  0.000  0.126  0.000  0.042  0.000  0.000  0.000  0.000  0.000  0.168
tot    0.000  0.504  0.000  0.168  0.000  0.000  0.000  0.000  0.000  0.672
 
band    15 # energy   28.98928058 # occ.  0.00000000
 
ion      s     py     pz     px    dxy    dyz    dz2    dxz  x2-y2    tot
    1  0.004  0.002  0.008  0.007  0.000  0.000  0.000  0.000  0.000  0.022
    2  0.004  0.002  0.008  0.007  0.000  0.000  0.000  0.000  0.000  0.022
    3  0.004  0.002  0.008  0.007  0.000  0.000  0.000  0.000  0.000  0.022
    4  0.004  0.002  0.008  0.007  0.000  0.000  0.000  0.000  0.000  0.022
tot    0.014  0.010  0.034  0.030  0.000  0.000  0.000  0.000  0.000  0.088
 
band    16 # energy   31.48474541 # occ.  0.00000000
 
ion      s     py     pz     px    dxy    dyz    dz2    dxz  x2-y2    tot
    1  0.177  0.008  0.008  0.023  0.000  0.000  0.000  0.000  0.000  0.216
    2  0.177  0.008  0.008  0.023  0.000  0.000  0.000  0.000  0.000  0.216
    3  0.177  0.008  0.008  0.023  0.000  0.000  0.000  0.000  0.000  0.216
    4  0.177  0.008  0.008  0.023  0.000  0.000  0.000  0.000  0.000  0.216
tot    0.709  0.031  0.032  0.092  0.000  0.000  0.000  0.000  0.000  0.863
 

 k-point     4 :    0.21428571 0.00000000 0.00000000     weight = 0.00510204

band     1 # energy  -10.28188626 # occ.  1.00000000
 
ion      s     py     pz     px    dxy    dyz    dz2    dxz  x2-y2    tot
    1  0.145  0.002  0.000  0.007  0.000  0.000  0.000  0.000  0.000  0.154
    2  0.145  0.002  0.000  0.007  0.000  0.000  0.000  0.000  0.000  0.154
    3  0.145  0.002  0.000  0.007  0.000  0.000  0.000  0.000  0.000  0.154
    4  0.145  0.002  0.000  0.007  0.000  0.000  0.000  0.000  0.000  0.154
tot    0.580  0.009  0.000  0.028  0.000  0.000  0.000  0.000  0.000  0.617
 
band     2 # energy   -3.90099436 # occ.  1.00000000
 
ion      s     py     pz     px    dxy    dyz    dz2    dxz  x2-y2    tot
    1  0.148  0.003  0.018  0.010  0.000  0.000  0.000  0.000  0.000  0.180
    2  0.148  0.003  0.018  0.010  0.000  0.000  0.000  0.000  0.000  0.180
    3  0.148  0.003  0.018  0.010  0.000  0.000  0.000  0.000  0.000  0.180
    4  0.148  0.003  0.018  0.010  0.000  0.000  0.000  0.000  0.000  0.180
tot    0.591  0.013  0.074  0.040  0.000  0.000  0.000  0.000  0.000  0.718
 
band     3 # energy   -1.92086612 # occ.  1.00000000
 
ion      s     py     pz     px    dxy    dyz    dz2    dxz  x2-y2    tot
    1  0.040  0.000  0.106  0.001  0.000  0.000  0.000  0.000  0.000  0.147
    2  0.040  0.000  0.106  0.001  0.000  0.000  0.000  0.000  0.000  0.147
    3  0.040  0.000  0.106  0.001  0.000  0.000  0.000  0.000  0.000  0.147
    4  0.040  0.000  0.106  0.001  0.000  0.000  0.000  0.000  0.000  0.147
tot    0.161  0.001  0.423  0.003  0.000  0.000  0.000  0.000  0.000  0.588
 
band     4 # energy    4.36205384 # occ.  1.00000000
 
ion      s     py     pz     px    dxy    dyz    dz2    dxz  x2-y2    tot
    1  0.038  0.034  0.002  0.101  0.000  0.000  0.000  0.000  0.000  0.175
    2  0.038  0.034  0.002  0.101  0.000  0.000  0.000  0.000  0.000  0.175
    3  0.038  0.034  0.002  0.101  0.000  0.000  0.000  0.000  0.000  0.175
    4  0.038  0.034  0.002  0.101  0.000  0.000  0.000  0.000  0.000  0.175
tot    0.151  0.135  0.007  0.406  0.000  0.000  0.000  0.000  0.000  0.699
 
band     5 # energy    7.06583554 # occ.  1.00000000
 
ion      s     py     pz     px    dxy    dyz    dz2    dxz  x2-y2    tot
    1  0.000  0.139  0.000  0.046  0.000  0.000  0.000  0.000  0.000  0.185
    2  0.000  0.139  0.000  0.046  0.000  0.000  0.000  0.000  0.000  0.185
    3  0.000  0.139  0.000  0.046  0.000  0.000  0.000  0.000  0.000  0.185
    4  0.000  0.139  0.000  0.046  0.000  0.000  0.000  0.000  0.000  0.185
tot    0.000  0.555  0.000  0.185  0.000  0.000  0.000  0.000  0.000  0.741
 
band     6 # energy    8.68676119 # occ.  1.00000000
 
ion      s     py     pz     px    dxy    dyz    dz2    dxz  x2-y2    tot
    1  0.030  0.038  0.013  0.114  0.000  0.000  0.000  0.000  0.000  0.196
    2  0.030  0.038  0.013  0.114  0.000  0.000  0.000  0.000  0.000  0.196
    3  0.030  0.038  0.013  0.114  0.000  0.000  0.000  0.000  0.000  0.196
    4  0.030  0.038  0.013  0.114  0.000  0.000  0.000  0.000  0.000  0.196
tot    0.120  0.153  0.053  0.458  0.000  0.000  0.000  0.000  0.000  0.784
 
band     7 # energy   10.13571031 # occ.  1.00000000
 
ion      s     py     pz     px    dxy    dyz    dz2    dxz  x2-y2    tot
    1  0.003  0.005  0.167  0.015  0.000  0.000  0.000  0.000  0.000  0.191
    2  0.003  0.005  0.167  0.015  0.000  0.000  0.000  0.000  0.000  0.191
    3  0.003  0.005  0.167  0.015  0.000  0.000  0.000  0.000  0.000  0.191
    4  0.003  0.005  0.167  0.015  0.000  0.000  0.000  0.000  0.000  0.191
tot    0.013  0.020  0.670  0.061  0.000  0.000  0.000  0.000  0.000  0.764
 
band     8 # energy   10.87960411 # occ.  1.00000000
 
ion      s     py     pz     px    dxy    dyz    dz2    dxz  x2-y2    tot
    1  0.000  0.151  0.000  0.050  0.000  0.000  0.000  0.000  0.000  0.201
    2  0.000  0.151  0.000  0.050  0.000  0.000  0.000  0.000  0.000  0.201
    3  0.000  0.151  0.000  0.050  0.000  0.000  0.000  0.000  0.000  0.201
    4  0.000  0.151  0.000  0.050  0.000  0.000  0.000  0.000  0.000  0.201
tot    0.000  0.603  0.000  0.201  0.000  0.000  0.000  0.000  0.000  0.804
 
band     9 # energy   18.07570996 # occ.  0.00000000
 
ion      s     py     pz     px    dxy    dyz    dz2    dxz  x2-y2    tot
    1  0.038  0.016  0.023  0.048  0.000  0.000  0.000  0.000  0.000  0.126
    2  0.038  0.016  0.023  0.048  0.000  0.000  0.000  0.000  0.000  0.126
    3  0.038  0.016  0.023  0.048  0.000  0.000  0.000  0.000  0.000  0.126
    4  0.038  0.016  0.023  0.048  0.000  0.000  0.000  0.000  0.000  0.126
tot    0.154  0.065  0.091  0.194  0.000  0.000  0.000  0.000  0.000  0.502
 
band    10 # energy   19.97727570 # occ.  0.00000000
 
ion      s     py     pz     px    dxy    dyz    dz2    dxz  x2-y2    tot
    1  0.007  0.003  0.134  0.009  0.000  0.000  0.000  0.000  0.000  0.153
    2  0.007  0.003  0.134  0.009  0.000  0.000  0.000  0.000  0.000  0.153
    3  0.007  0.003  0.134  0.009  0.000  0.000  0.000  0.000  0.000  0.153
    4  0.007  0.003  0.134  0.009  0.000  0.000  0.000  0.000  0.000  0.153