unknown system                          
            1
     2.513094    0.000000    0.000000
    -1.256547    2.176403    0.000000
     0.000000    0.000000    4.181402
   C 
   4
Direct configuration=     1
   0.33333300  0.66666700  0.93722800
   0.66666700  0.33333300  0.43722800
   0.66666700  0.33333300  0.06277200
   0.33333300  0.66666700  0.56277200
unknown system                          
            1
     2.499560    0.000000   -0.000000
    -1.249780    2.164682    0.000000
    -0.000000    0.000000    4.158936
   C 
   4
Direct configuration=     2
   0.33333300  0.66666700  0.93722985
   0.66666700  0.33333300  0.43722985
   0.66666700  0.33333300  0.06277015
   0.33333300  0.66666700  0.56277015
unknown system                          
            1
     2.458959    0.000000   -0.000000
    -1.229480    2.129521    0.000000
    -0.000000    0.000000    4.091538
   C 
   4
Direct configuration=     3
   0.33333300  0.66666700  0.93723545
   0.66666700  0.33333300  0.43723545
   0.66666700  0.33333300  0.06276455
   0.33333300  0.66666700  0.56276455
unknown system                          
            1
     2.377757    0.000000   -0.000000
    -1.188878    2.059198    0.000000
    -0.000000    0.000000    3.956743
   C 
   4
Direct configuration=     4
   0.33333300  0.66666700  0.93724682
   0.66666700  0.33333300  0.43724682
   0.66666700  0.33333300  0.06275318
   0.33333300  0.66666700  0.56275318
unknown system                          
            1
     2.374447    0.000000   -0.000000
    -1.187224    2.056332    0.000000
    -0.000000    0.000000    3.951249
   C 
   4
Direct configuration=     5
   0.33333300  0.66666700  0.93724730
   0.66666700  0.33333300  0.43724730
   0.66666700  0.33333300  0.06275270
   0.33333300  0.66666700  0.56275270
unknown system                          
            1
     2.374186    0.000000   -0.000000
    -1.187093    2.056105    0.000000
    -0.000000   -0.000000    3.951874
   C 
   4
Direct configuration=     6
   0.33333300  0.66666700  0.93700878
   0.66666700  0.33333300  0.43700878
   0.66666700  0.33333300  0.06299122
   0.33333300  0.66666700  0.56299122
unknown system                          
            1
     2.373746    0.000000   -0.000000
    -1.186873    2.055724    0.000000
    -0.000000   -0.000000    3.952926
   C 
   4
Direct configuration=     7
   0.33333300  0.66666700  0.93660705
   0.66666700  0.33333300  0.43660705
   0.66666700  0.33333300  0.06339295
   0.33333300  0.66666700  0.56339295
unknown system                          
            1
     2.373490    0.000000   -0.000000
    -1.186745    2.055502    0.000000
    -0.000000    0.000000    3.954191
   C 
   4
Direct configuration=     8
   0.33333300  0.66666700  0.93660466
   0.66666700  0.33333300  0.43660466
   0.66666700  0.33333300  0.06339534
   0.33333300  0.66666700  0.56339534
unknown system                          
            1
     2.373013    0.000000   -0.000000
    -1.186506    2.055089    0.000000
    -0.000000    0.000000    3.956551
   C 
   4
Direct configuration=     9
   0.33333300  0.66666700  0.93660021
   0.66666700  0.33333300  0.43660021
   0.66666700  0.33333300  0.06339979
   0.33333300  0.66666700  0.56339979
