   4   4   1   0
  0.5717550E+01  0.2513094E-09  0.2513094E-09  0.4181402E-09  0.1500000E-16
   1.0000000000000000E-004
  CAR 
 unknown system                          
     32.20339750    -13.77829847  301     10.90812455      1.00000000
    -13.778  0.0000E+00  0.0000E+00  0.0000E+00  0.0000E+00
    -13.625  0.0000E+00  0.0000E+00  0.0000E+00  0.0000E+00
    -13.472  0.0000E+00  0.0000E+00  0.0000E+00  0.0000E+00
    -13.318  0.0000E+00  0.0000E+00  0.0000E+00  0.0000E+00
    -13.165  0.0000E+00  0.0000E+00  0.0000E+00  0.0000E+00
    -13.012  0.0000E+00  0.0000E+00  0.0000E+00  0.0000E+00
    -12.859  0.0000E+00  0.0000E+00  0.0000E+00  0.0000E+00
    -12.705  0.0000E+00  0.0000E+00  0.0000E+00  0.0000E+00
    -12.552  0.0000E+00  0.0000E+00  0.0000E+00  0.0000E+00
    -12.399  0.0000E+00  0.0000E+00  0.0000E+00  0.0000E+00
    -12.246  0.0000E+00  0.0000E+00  0.0000E+00  0.0000E+00
    -12.092  0.0000E+00  0.0000E+00  0.0000E+00  0.0000E+00
    -11.939  0.0000E+00  0.0000E+00  0.0000E+00  0.0000E+00
    -11.786  0.0000E+00  0.0000E+00  0.0000E+00  0.0000E+00
    -11.632  0.4731E-04  0.4742E-04  0.8780E-06  0.8811E-06
    -11.479  0.4246E-03  0.4248E-03  0.3819E-04  0.3822E-04
    -11.326  0.5699E-03  0.5700E-03  0.1161E-03  0.1161E-03
    -11.173  0.7218E-03  0.7218E-03  0.2163E-03  0.2164E-03
    -11.019  0.8176E-03  0.8176E-03  0.3339E-03  0.3340E-03
    -10.866  0.9553E-03  0.9553E-03  0.4698E-03  0.4698E-03
    -10.713  0.1044E-02  0.1044E-02  0.6235E-03  0.6236E-03
    -10.560  0.1105E-02  0.1106E-02  0.7884E-03  0.7885E-03
    -10.406  0.1178E-02  0.1178E-02  0.9632E-03  0.9632E-03
    -10.253  0.1266E-02  0.1266E-02  0.1150E-02  0.1150E-02
    -10.100  0.1356E-02  0.1356E-02  0.1351E-02  0.1351E-02
     -9.946  0.1426E-02  0.1426E-02  0.1565E-02  0.1565E-02
     -9.793  0.1480E-02  0.1480E-02  0.1788E-02  0.1788E-02
     -9.640  0.1542E-02  0.1542E-02  0.2019E-02  0.2019E-02
     -9.487  0.1602E-02  0.1602E-02  0.2260E-02  0.2260E-02
     -9.333  0.1667E-02  0.1668E-02  0.2511E-02  0.2511E-02
     -9.180  0.1733E-02  0.1733E-02  0.2771E-02  0.2772E-02
     -9.027  0.1787E-02  0.1787E-02  0.3041E-02  0.3041E-02
     -8.874  0.1845E-02  0.1845E-02  0.3320E-02  0.3320E-02
     -8.720  0.1907E-02  0.1908E-02  0.3607E-02  0.3607E-02
     -8.567  0.1969E-02  0.1969E-02  0.3904E-02  0.3904E-02
     -8.414  0.2023E-02  0.2023E-02  0.4210E-02  0.4210E-02
     -8.260  0.2082E-02  0.2082E-02  0.4525E-02  0.4525E-02
     -8.107  0.2140E-02  0.2140E-02  0.4848E-02  0.4848E-02
     -7.954  0.2192E-02  0.2192E-02  0.5180E-02  0.5180E-02
     -7.801  0.2249E-02  0.2249E-02  0.5520E-02  0.5521E-02
     -7.647  0.2306E-02  0.2306E-02  0.5869E-02  0.5870E-02
     -7.494  0.2369E-02  0.2369E-02  0.6228E-02  0.6228E-02
     -7.341  0.2436E-02  0.2436E-02  0.6596E-02  0.6596E-02
     -7.188  0.2505E-02  0.2505E-02  0.6974E-02  0.6975E-02
     -7.034  0.2580E-02  0.2580E-02  0.7364E-02  0.7364E-02
     -6.881  0.2678E-02  0.2678E-02  0.7767E-02  0.7767E-02
     -6.728  0.2786E-02  0.2786E-02  0.8185E-02  0.8185E-02
     -6.574  0.2923E-02  0.2923E-02  0.8622E-02  0.8623E-02
     -6.421  0.3121E-02  0.3122E-02  0.9082E-02  0.9082E-02
     -6.268  0.3526E-02  0.3526E-02  0.9597E-02  0.9597E-02
     -6.115  0.3358E-02  0.3358E-02  0.1013E-01  0.1013E-01
     -5.961  0.3306E-02  0.3306E-02  0.1064E-01  0.1064E-01
     -5.808  0.3285E-02  0.3285E-02  0.1114E-01  0.1114E-01
     -5.655  0.3387E-02  0.3386E-02  0.1166E-01  0.1166E-01
     -5.502  0.3100E-02  0.3100E-02  0.1215E-01  0.1215E-01
     -5.348  0.3004E-02  0.3004E-02  0.1262E-01  0.1262E-01
     -5.195  0.2916E-02  0.2916E-02  0.1308E-01  0.1308E-01
     -5.042  0.2809E-02  0.2809E-02  0.1352E-01  0.1352E-01
     -4.889  0.2704E-02  0.2704E-02  0.1394E-01  0.1394E-01
     -4.735  0.2691E-02  0.2691E-02  0.1435E-01  0.1435E-01
     -4.582  0.2463E-02  0.2463E-02  0.1475E-01  0.1475E-01
     -4.429  0.2381E-02  0.2381E-02  0.1512E-01  0.1512E-01
     -4.275  0.2408E-02  0.2408E-02  0.1548E-01  0.1548E-01
     -4.122  0.2687E-02  0.2687E-02  0.1587E-01  0.1587E-01
     -3.969  0.3448E-02  0.3448E-02  0.1633E-01  0.1633E-01
     -3.816  0.4068E-02  0.4067E-02  0.1691E-01  0.1691E-01
     -3.662  0.3480E-02  0.3480E-02  0.1747E-01  0.1747E-01
     -3.509  0.3686E-02  0.3686E-02  0.1802E-01  0.1802E-01
     -3.356  0.3525E-02  0.3525E-02  0.1858E-01  0.1858E-01
     -3.203  0.2616E-02  0.2615E-02  0.1910E-01  0.1910E-01
     -3.049  0.2032E-02  0.2032E-02  0.1945E-01  0.1945E-01
     -2.896  0.1892E-02  0.1892E-02  0.1975E-01  0.1975E-01
     -2.743  0.1781E-02  0.1781E-02  0.2003E-01  0.2003E-01
     -2.589  0.1829E-02  0.1829E-02  0.2030E-01  0.2030E-01
     -2.436  0.2075E-02  0.2075E-02  0.2060E-01  0.2060E-01
     -2.283  0.2425E-02  0.2425E-02  0.2094E-01  0.2094E-01
     -2.130  0.3283E-02  0.3284E-02  0.2138E-01  0.2138E-01
     -1.976  0.3975E-02  0.3975E-02  0.2192E-01  0.2192E-01
     -1.823  0.4375E-02  0.4375E-02  0.2257E-01  0.2257E-01
     -1.670  0.4535E-02  0.4535E-02  0.2324E-01  0.2324E-01
     -1.517  0.4895E-02  0.4895E-02  0.2397E-01  0.2397E-01
     -1.363  0.4720E-02  0.4720E-02  0.2471E-01  0.2471E-01
     -1.210  0.4254E-02  0.4254E-02  0.2539E-01  0.2540E-01
     -1.057  0.3952E-02  0.3952E-02  0.2602E-01  0.2602E-01
     -0.903  0.3713E-02  0.3713E-02  0.2661E-01  0.2661E-01
     -0.750  0.3554E-02  0.3554E-02  0.2716E-01  0.2716E-01
     -0.597  0.3873E-02  0.3874E-02  0.2772E-01  0.2772E-01
     -0.444  0.2976E-02  0.2976E-02  0.2823E-01  0.2823E-01
     -0.290  0.2868E-02  0.2868E-02  0.2867E-01  0.2867E-01
     -0.137  0.2864E-02  0.2864E-02  0.2911E-01  0.2911E-01
      0.016  0.2944E-02  0.2944E-02  0.2955E-01  0.2955E-01
      0.169  0.3345E-02  0.3345E-02  0.3002E-01  0.3003E-01
      0.323  0.3992E-02  0.3992E-02  0.3058E-01  0.3058E-01
      0.476  0.4930E-02  0.4930E-02  0.3125E-01  0.3125E-01
      0.629  0.4954E-02  0.4954E-02  0.3198E-01  0.3198E-01
      0.783  0.5350E-02  0.5350E-02  0.3278E-01  0.3278E-01
      0.936  0.5044E-02  0.5043E-02  0.3358E-01  0.3358E-01
      1.089  0.4784E-02  0.4784E-02  0.3433E-01  0.3433E-01
      1.242  0.4543E-02  0.4543E-02  0.3504E-01  0.3504E-01
      1.396  0.4306E-02  0.4306E-02  0.3572E-01  0.3572E-01
      1.549  0.4105E-02  0.4105E-02  0.3637E-01  0.3637E-01
      1.702  0.4047E-02  0.4047E-02  0.3699E-01  0.3699E-01
      1.855  0.4013E-02  0.4013E-02  0.3761E-01  0.3761E-01
      2.009  0.4272E-02  0.4272E-02  0.3824E-01  0.3824E-01
      2.162  0.4358E-02  0.4358E-02  0.3889E-01  0.3889E-01
      2.315  0.4614E-02  0.4614E-02  0.3958E-01  0.3958E-01
      2.469  0.4942E-02  0.4942E-02  0.4031E-01  0.4031E-01
      2.622  0.5231E-02  0.5231E-02  0.4109E-01  0.4109E-01
      2.775  0.5524E-02  0.5524E-02  0.4191E-01  0.4191E-01
      2.928  0.5625E-02  0.5625E-02  0.4276E-01  0.4276E-01
      3.082  0.5818E-02  0.5818E-02  0.4364E-01  0.4364E-01
      3.235  0.5425E-02  0.5425E-02  0.4453E-01  0.4453E-01
      3.388  0.5507E-02  0.5507E-02  0.4537E-01  0.4537E-01
      3.541  0.5180E-02  0.5180E-02  0.4620E-01  0.4620E-01
      3.695  0.5409E-02  0.5409E-02  0.4699E-01  0.4699E-01
      3.848  0.5845E-02  0.5845E-02  0.4787E-01  0.4787E-01
      4.001  0.6025E-02  0.6025E-02  0.4878E-01  0.4878E-01
      4.155  0.6177E-02  0.6177E-02  0.4972E-01  0.4972E-01
      4.308  0.6283E-02  0.6283E-02  0.5066E-01  0.5066E-01
      4.461  0.6330E-02  0.6330E-02  0.5163E-01  0.5163E-01
      4.614  0.6898E-02  0.6898E-02  0.5263E-01  0.5263E-01
      4.768  0.7454E-02  0.7454E-02  0.5374E-01  0.5374E-01
      4.921  0.7595E-02  0.7595E-02  0.5490E-01  0.5490E-01
      5.074  0.7524E-02  0.7523E-02  0.5606E-01  0.5606E-01
      5.227  0.6893E-02  0.6893E-02  0.5717E-01  0.5717E-01
      5.381  0.6569E-02  0.6569E-02  0.5820E-01  0.5820E-01
      5.534  0.6724E-02  0.6724E-02  0.5921E-01  0.5921E-01
      5.687  0.7381E-02  0.7381E-02  0.6027E-01  0.6027E-01
      5.841  0.9311E-02  0.9311E-02  0.6158E-01  0.6158E-01
      5.994  0.9588E-02  0.9587E-02  0.6303E-01  0.6303E-01
      6.147  0.1130E-01  0.1130E-01  0.6460E-01  0.6460E-01
      6.300  0.8708E-02  0.8708E-02  0.6618E-01  0.6618E-01
      6.454  0.7674E-02  0.7674E-02  0.6742E-01  0.6742E-01
      6.607  0.7289E-02  0.7289E-02  0.6857E-01  0.6857E-01
      6.760  0.7037E-02  0.7037E-02  0.6966E-01  0.6966E-01
      6.913  0.6503E-02  0.6503E-02  0.7071E-01  0.7071E-01
      7.067  0.6277E-02  0.6277E-02  0.7169E-01  0.7169E-01
      7.220  0.5668E-02  0.5668E-02  0.7261E-01  0.7261E-01
      7.373  0.5184E-02  0.5184E-02  0.7344E-01  0.7344E-01
      7.527  0.4607E-02  0.4607E-02  0.7419E-01  0.7419E-01
      7.680  0.3929E-02  0.3929E-02  0.7484E-01  0.7484E-01
      7.833  0.3555E-02  0.3555E-02  0.7542E-01  0.7542E-01
      7.986  0.3312E-02  0.3312E-02  0.7594E-01  0.7594E-01
      8.140  0.3118E-02  0.3118E-02  0.7643E-01  0.7643E-01
      8.293  0.2817E-02  0.2817E-02  0.7689E-01  0.7689E-01
      8.446  0.2567E-02  0.2567E-02  0.7730E-01  0.7730E-01
      8.599  0.2360E-02  0.2360E-02  0.7768E-01  0.7768E-01
      8.753  0.2222E-02  0.2222E-02  0.7803E-01  0.7803E-01
      8.906  0.2003E-02  0.2003E-02  0.7835E-01  0.7835E-01
      9.059  0.1743E-02  0.1743E-02  0.7864E-01  0.7864E-01
      9.213  0.1522E-02  0.1522E-02  0.7889E-01  0.7889E-01
      9.366  0.1320E-02  0.1320E-02  0.7911E-01  0.7911E-01
      9.519  0.1130E-02  0.1130E-02  0.7929E-01  0.7929E-01
      9.672  0.9675E-03  0.9675E-03  0.7945E-01  0.7945E-01
      9.826  0.8449E-03  0.8449E-03  0.7959E-01  0.7959E-01
      9.979  0.7302E-03  0.7302E-03  0.7971E-01  0.7971E-01
     10.132  0.5727E-03  0.5728E-03  0.7981E-01  0.7981E-01
     10.285  0.4326E-03  0.4327E-03  0.7989E-01  0.7989E-01
     10.439  0.3139E-03  0.3139E-03  0.7995E-01  0.7995E-01
     10.592  0.1730E-03  0.1731E-03  0.7999E-01  0.7999E-01
     10.745  0.2528E-04  0.2529E-04  0.8000E-01  0.8000E-01
     10.899  0.0000E+00  0.0000E+00  0.8000E-01  0.8000E-01
     11.052  0.0000E+00  0.0000E+00  0.8000E-01  0.8000E-01
     11.205  0.0000E+00  0.0000E+00  0.8000E-01  0.8000E-01
     11.358  0.0000E+00  0.0000E+00  0.8000E-01  0.8000E-01
     11.512  0.0000E+00  0.0000E+00  0.8000E-01  0.8000E-01
     11.665  0.0000E+00  0.0000E+00  0.8000E-01  0.8000E-01
     11.818  0.0000E+00  0.0000E+00  0.8000E-01  0.8000E-01
     11.971  0.0000E+00  0.0000E+00  0.8000E-01  0.8000E-01
     12.125  0.0000E+00  0.0000E+00  0.8000E-01  0.8000E-01
     12.278  0.0000E+00  0.0000E+00  0.8000E-01  0.8000E-01
     12.431  0.0000E+00  0.0000E+00  0.8000E-01  0.8000E-01
     12.585  0.0000E+00  0.0000E+00  0.8000E-01  0.8000E-01
     12.738  0.0000E+00  0.0000E+00  0.8000E-01  0.8000E-01
     12.891  0.0000E+00  0.0000E+00  0.8000E-01  0.8000E-01
     13.044  0.0000E+00  0.0000E+00  0.8000E-01  0.8000E-01
     13.198  0.0000E+00  0.0000E+00  0.8000E-01  0.8000E-01
     13.351  0.0000E+00  0.0000E+00  0.8000E-01  0.8000E-01
     13.504  0.0000E+00  0.0000E+00  0.8000E-01  0.8000E-01
     13.657  0.0000E+00  0.0000E+00  0.8000E-01  0.8000E-01
     13.811  0.0000E+00  0.0000E+00  0.8000E-01  0.8000E-01
     13.964  0.0000E+00  0.0000E+00  0.8000E-01  0.8000E-01
     14.117  0.4310E-04  0.4310E-04  0.8000E-01  0.8000E-01
     14.271  0.1028E-03  0.1028E-03  0.8001E-01  0.8001E-01
     14.424  0.1656E-03  0.1656E-03  0.8003E-01  0.8003E-01
     14.577  0.2342E-03  0.2342E-03  0.8006E-01  0.8006E-01
     14.730  0.3096E-03  0.3096E-03  0.8011E-01  0.8011E-01
     14.884  0.3886E-03  0.3886E-03  0.8016E-01  0.8016E-01
     15.037  0.4265E-03  0.4265E-03  0.8022E-01  0.8022E-01
     15.190  0.4666E-03  0.4666E-03  0.8029E-01  0.8029E-01
     15.343  0.5101E-03  0.5101E-03  0.8037E-01  0.8037E-01
     15.497  0.6684E-03  0.6684E-03  0.8045E-01  0.8045E-01
     15.650  0.1295E-02  0.1295E-02  0.8060E-01  0.8060E-01
     15.803  0.2175E-02  0.2175E-02  0.8086E-01  0.8086E-01
     15.957  0.3528E-02  0.3528E-02  0.8128E-01  0.8128E-01
     16.110  0.5878E-02  0.5878E-02  0.8199E-01  0.8199E-01
     16.263  0.6708E-02  0.6708E-02  0.8299E-01  0.8299E-01
     16.416  0.6246E-02  0.6245E-02  0.8396E-01  0.8396E-01
     16.570  0.5360E-02  0.5360E-02  0.8482E-01  0.8482E-01
     16.723  0.5274E-02  0.5274E-02  0.8564E-01  0.8564E-01
     16.876  0.5413E-02  0.5413E-02  0.8645E-01  0.8645E-01
     17.029  0.5616E-02  0.5616E-02  0.8730E-01  0.8730E-01
     17.183  0.5782E-02  0.5782E-02  0.8817E-01  0.8817E-01
     17.336  0.5869E-02  0.5869E-02  0.8908E-01  0.8908E-01
     17.489  0.6363E-02  0.6363E-02  0.9001E-01  0.9001E-01
     17.643  0.7333E-02  0.7332E-02  0.9106E-01  0.9106E-01
     17.796  0.8453E-02  0.8453E-02  0.9225E-01  0.9225E-01
     17.949  0.1042E-01  0.1042E-01  0.9369E-01  0.9369E-01
     18.102  0.1118E-01  0.1118E-01  0.9536E-01  0.9536E-01
     18.256  0.1107E-01  0.1107E-01  0.9709E-01  0.9709E-01
     18.409  0.9476E-02  0.9476E-02  0.9867E-01  0.9867E-01
     18.562  0.7692E-02  0.7692E-02  0.1000E+00  0.1000E+00
     18.715  0.5492E-02  0.5492E-02  0.1010E+00  0.1010E+00
     18.869  0.6222E-02  0.6221E-02  0.1019E+00  0.1019E+00
     19.022  0.7340E-02  0.7340E-02  0.1029E+00  0.1029E+00
     19.175  0.6565E-02  0.6565E-02  0.1040E+00  0.1040E+00
     19.329  0.5902E-02  0.5902E-02  0.1050E+00  0.1050E+00
     19.482  0.5907E-02  0.5907E-02  0.1059E+00  0.1059E+00
     19.635  0.6250E-02  0.6250E-02  0.1068E+00  0.1068E+00
     19.788  0.6926E-02  0.6926E-02  0.1078E+00  0.1078E+00
     19.942  0.8291E-02  0.8291E-02  0.1090E+00  0.1090E+00
     20.095  0.9303E-02  0.9303E-02  0.1103E+00  0.1103E+00
     20.248  0.9358E-02  0.9358E-02  0.1118E+00  0.1118E+00
     20.401  0.8984E-02  0.8984E-02  0.1132E+00  0.1132E+00
     20.555  0.8614E-02  0.8614E-02  0.1145E+00  0.1145E+00
     20.708  0.7298E-02  0.7298E-02  0.1157E+00  0.1157E+00
     20.861  0.6445E-02  0.6445E-02  0.1168E+00  0.1168E+00
     21.015  0.5835E-02  0.5835E-02  0.1177E+00  0.1177E+00
     21.168  0.5592E-02  0.5592E-02  0.1186E+00  0.1186E+00
     21.321  0.5580E-02  0.5580E-02  0.1195E+00  0.1195E+00
     21.474  0.4804E-02  0.4804E-02  0.1203E+00  0.1203E+00
     21.628  0.5214E-02  0.5214E-02  0.1210E+00  0.1210E+00
     21.781  0.6109E-02  0.6109E-02  0.1219E+00  0.1219E+00
     21.934  0.7453E-02  0.7452E-02  0.1229E+00  0.1229E+00
     22.087  0.8159E-02  0.8159E-02  0.1242E+00  0.1242E+00
     22.241  0.7284E-02  0.7284E-02  0.1254E+00  0.1254E+00
     22.394  0.6989E-02  0.6989E-02  0.1265E+00  0.1265E+00
     22.547  0.7701E-02  0.7701E-02  0.1276E+00  0.1276E+00
     22.701  0.6825E-02  0.6825E-02  0.1287E+00  0.1287E+00
     22.854  0.5988E-02  0.5988E-02  0.1297E+00  0.1297E+00
     23.007  0.5438E-02  0.5438E-02  0.1306E+00  0.1306E+00
     23.160  0.5194E-02  0.5194E-02  0.1314E+00  0.1314E+00
     23.314  0.4362E-02  0.4362E-02  0.1322E+00  0.1322E+00
     23.467  0.3498E-02  0.3498E-02  0.1327E+00  0.1327E+00
     23.620  0.3490E-02  0.3490E-02  0.1333E+00  0.1333E+00
     23.773  0.3715E-02  0.3715E-02  0.1338E+00  0.1338E+00
     23.927  0.3869E-02  0.3869E-02  0.1344E+00  0.1344E+00
     24.080  0.4484E-02  0.4484E-02  0.1351E+00  0.1351E+00
     24.233  0.4551E-02  0.4551E-02  0.1357E+00  0.1357E+00
     24.387  0.4709E-02  0.4709E-02  0.1365E+00  0.1365E+00
     24.540  0.4420E-02  0.4420E-02  0.1372E+00  0.1372E+00
     24.693  0.4110E-02  0.4110E-02  0.1378E+00  0.1378E+00
     24.846  0.4133E-02  0.4133E-02  0.1385E+00  0.1385E+00
     25.000  0.4067E-02  0.4067E-02  0.1391E+00  0.1391E+00
     25.153  0.4679E-02  0.4679E-02  0.1398E+00  0.1398E+00
     25.306  0.4961E-02  0.4961E-02  0.1405E+00  0.1405E+00
     25.459  0.4894E-02  0.4894E-02  0.1413E+00  0.1413E+00
     25.613  0.4897E-02  0.4897E-02  0.1420E+00  0.1420E+00
     25.766  0.5453E-02  0.5453E-02  0.1428E+00  0.1428E+00
     25.919  0.5969E-02  0.5969E-02  0.1437E+00  0.1437E+00
     26.073  0.6199E-02  0.6199E-02  0.1446E+00  0.1446E+00
     26.226  0.6919E-02  0.6920E-02  0.1456E+00  0.1456E+00
     26.379  0.8789E-02  0.8790E-02  0.1468E+00  0.1468E+00
     26.532  0.1149E-01  0.1148E-01  0.1484E+00  0.1484E+00
     26.686  0.7291E-02  0.7291E-02  0.1498E+00  0.1498E+00
     26.839  0.7385E-02  0.7385E-02  0.1509E+00  0.1509E+00
     26.992  0.7683E-02  0.7683E-02  0.1520E+00  0.1520E+00
     27.145  0.7248E-02  0.7248E-02  0.1532E+00  0.1532E+00
     27.299  0.5888E-02  0.5889E-02  0.1542E+00  0.1542E+00
     27.452  0.5341E-02  0.5343E-02  0.1551E+00  0.1551E+00
     27.605  0.4976E-02  0.4979E-02  0.1558E+00  0.1558E+00
     27.759  0.3707E-02  0.3711E-02  0.1565E+00  0.1565E+00
     27.912  0.2975E-02  0.2979E-02  0.1570E+00  0.1570E+00
     28.065  0.2342E-02  0.2347E-02  0.1574E+00  0.1574E+00
     28.218  0.2053E-02  0.2059E-02  0.1577E+00  0.1577E+00
     28.372  0.1843E-02  0.1850E-02  0.1580E+00  0.1580E+00
     28.525  0.1699E-02  0.1707E-02  0.1583E+00  0.1583E+00
     28.678  0.1576E-02  0.1585E-02  0.1585E+00  0.1585E+00
     28.831  0.1499E-02  0.1522E-02  0.1588E+00  0.1588E+00
     28.985  0.1430E-02  0.1447E-02  0.1590E+00  0.1590E+00
     29.138  0.1316E-02  0.1245E-02  0.1592E+00  0.1592E+00
     29.291  0.1082E-02  0.1072E-02  0.1594E+00  0.1594E+00
     29.444  0.9636E-03  0.9639E-03  0.1595E+00  0.1595E+00
     29.598  0.9494E-03  0.9634E-03  0.1597E+00  0.1597E+00
     29.751  0.1065E-02  0.1046E-02  0.1599E+00  0.1599E+00
     29.904  0.3754E-03  0.3616E-03  0.1600E+00  0.1600E+00
     30.058  0.2607E-04  0.2513E-04  0.1600E+00  0.1600E+00
     30.211  0.0000E+00  0.0000E+00  0.1600E+00  0.1600E+00
     30.364  0.0000E+00  0.0000E+00  0.1600E+00  0.1600E+00
     30.517  0.0000E+00  0.0000E+00  0.1600E+00  0.1600E+00
     30.671  0.0000E+00  0.0000E+00  0.1600E+00  0.1600E+00
     30.824  0.0000E+00  0.0000E+00  0.1600E+00  0.1600E+00
     30.977  0.0000E+00  0.0000E+00  0.1600E+00  0.1600E+00
     31.130  0.0000E+00  0.0000E+00  0.1600E+00  0.1600E+00
     31.284  0.0000E+00  0.0000E+00  0.1600E+00  0.1600E+00
     31.437  0.0000E+00  0.0000E+00  0.1600E+00  0.1600E+00
     31.590  0.0000E+00  0.0000E+00  0.1600E+00  0.1600E+00
     31.744  0.0000E+00  0.0000E+00  0.1600E+00  0.1600E+00
     31.897  0.0000E+00  0.0000E+00  0.1600E+00  0.1600E+00
     32.050  0.0000E+00  0.0000E+00  0.1600E+00  0.1600E+00
     32.203  0.0000E+00  0.0000E+00  0.1600E+00  0.1600E+00
     32.20339750    -13.77829847  301     10.90812455      1.00000000
    -13.778  0.0000E+00  0.0000E+00  0.0000E+00  0.0000E+00  0.0000E+00  0.0000E+00  0.0000E+00  0.0000E+00  0.0000E+00  0.0000E+00  0.0000E+00  0.0000E+00  0.0000E+00  0.0000E+00  0.0000E+00  0.0000E+00  0.0000E+00  0.0000E+00
    -13.625  0.0000E+00  0.0000E+00  0.0000E+00  0.0000E+00  0.0000E+00  0.0000E+00  0.0000E+00  0.0000E+00  0.0000E+00  0.0000E+00  0.0000E+00  0.0000E+00  0.0000E+00  0.0000E+00  0.0000E+00  0.0000E+00  0.0000E+00  0.0000E+00
    -13.472  0.0000E+00  0.0000E+00  0.0000E+00  0.0000E+00  0.0000E+00  0.0000E+00  0.0000E+00  0.0000E+00  0.0000E+00  0.0000E+00  0.0000E+00  0.0000E+00  0.0000E+00  0.0000E+00  0.0000E+00  0.0000E+00  0.0000E+00  0.0000E+00
    -13.318  0.0000E+00  0.0000E+00  0.0000E+00  0.0000E+00  0.0000E+00  0.0000E+00  0.0000E+00  0.0000E+00  0.0000E+00  0.0000E+00  0.0000E+00  0.0000E+00  0.0000E+00  0.0000E+00  0.0000E+00  0.0000E+00  0.0000E+00  0.0000E+00
    -13.165  0.0000E+00  0.0000E+00  0.0000E+00  0.0000E+00  0.0000E+00  0.0000E+00  0.0000E+00  0.0000E+00  0.0000E+00  0.0000E+00  0.0000E+00  0.0000E+00  0.0000E+00  0.0000E+00  0.0000E+00  0.0000E+00  0.0000E+00  0.0000E+00
    -13.012  0.0000E+00  0.0000E+00  0.0000E+00  0.0000E+00  0.0000E+00  0.0000E+00  0.0000E+00  0.0000E+00  0.0000E+00  0.0000E+00  0.0000E+00  0.0000E+00  0.0000E+00  0.0000E+00  0.0000E+00  0.0000E+00  0.0000E+00  0.0000E+00
    -12.859  0.0000E+00  0.0000E+00  0.0000E+00  0.0000E+00  0.0000E+00  0.0000E+00  0.0000E+00  0.0000E+00  0.0000E+00  0.0000E+00  0.0000E+00  0.0000E+00  0.0000E+00  0.0000E+00  0.0000E+00  0.0000E+00  0.0000E+00  0.0000E+00
    -12.705  0.0000E+00  0.0000E+00  0.0000E+00  0.0000E+00  0.0000E+00  0.0000E+00  0.0000E+00  0.0000E+00  0.0000E+00  0.0000E+00  0.0000E+00  0.0000E+00  0.0000E+00  0.0000E+00  0.0000E+00  0.0000E+00  0.0000E+00  0.0000E+00
    -12.552  0.0000E+00  0.0000E+00  0.0000E+00  0.0000E+00  0.0000E+00  0.0000E+00  0.0000E+00  0.0000E+00  0.0000E+00  0.0000E+00  0.0000E+00  0.0000E+00  0.0000E+00  0.0000E+00  0.0000E+00  0.0000E+00  0.0000E+00  0.0000E+00
    -12.399  0.0000E+00  0.0000E+00  0.0000E+00  0.0000E+00  0.0000E+00  0.0000E+00  0.0000E+00  0.0000E+00  0.0000E+00  0.0000E+00  0.0000E+00  0.0000E+00  0.0000E+00  0.0000E+00  0.0000E+00  0.0000E+00  0.0000E+00  0.0000E+00
    -12.246  0.0000E+00  0.0000E+00  0.0000E+00  0.0000E+00  0.0000E+00  0.0000E+00  0.0000E+00  0.0000E+00  0.0000E+00  0.0000E+00  0.0000E+00  0.0000E+00  0.0000E+00  0.0000E+00  0.0000E+00  0.0000E+00  0.0000E+00  0.0000E+00
    -12.092  0.0000E+00  0.0000E+00  0.0000E+00  0.0000E+00  0.0000E+00  0.0000E+00  0.0000E+00  0.0000E+00  0.0000E+00  0.0000E+00  0.0000E+00  0.0000E+00  0.0000E+00  0.0000E+00  0.0000E+00  0.0000E+00  0.0000E+00  0.0000E+00
    -11.939  0.0000E+00  0.0000E+00  0.0000E+00  0.0000E+00  0.0000E+00  0.0000E+00  0.0000E+00  0.0000E+00  0.0000E+00  0.0000E+00  0.0000E+00  0.0000E+00  0.0000E+00  0.0000E+00  0.0000E+00  0.0000E+00  0.0000E+00  0.0000E+00
    -11.786  0.0000E+00  0.0000E+00  0.0000E+00  0.0000E+00  0.0000E+00  0.0000E+00  0.0000E+00  0.0000E+00  0.0000E+00  0.0000E+00  0.0000E+00  0.0000E+00  0.0000E+00  0.0000E+00  0.0000E+00  0.0000E+00  0.0000E+00  0.0000E+00
    -11.632  0.6726E-03  0.6742E-03  0.6699E-06  0.6714E-06  0.2190E-05  0.2195E-05  0.2010E-05  0.2014E-05  0.0000E+00  0.0000E+00  0.0000E+00  0.0000E+00  0.0000E+00  0.0000E+00  0.0000E+00  0.0000E+00  0.0000E+00  0.0000E+00
    -11.479  0.6016E-02  0.6018E-02  0.1712E-04  0.1713E-04  0.2919E-04  0.2920E-04  0.2532E-04  0.2533E-04  0.0000E+00  0.0000E+00  0.0000E+00  0.0000E+00  0.0000E+00  0.0000E+00  0.0000E+00  0.0000E+00  0.0000E+00  0.0000E+00
    -11.326  0.8029E-02  0.8030E-02  0.4720E-04  0.4722E-04  0.5989E-04  0.5991E-04  0.5282E-04  0.5284E-04  0.0000E+00  0.0000E+00  0.0000E+00  0.0000E+00  0.0000E+00  0.0000E+00  0.0000E+00  0.0000E+00  0.0000E+00  0.0000E+00
    -11.173  0.1012E-01  0.1012E-01  0.8215E-04  0.8217E-04  0.1007E-03  0.1007E-03  0.9152E-04  0.9154E-04  0.0000E+00  0.0000E+00  0.0000E+00  0.0000E+00  0.0000E+00  0.0000E+00  0.0000E+00  0.0000E+00  0.0000E+00  0.0000E+00
    -11.019  0.1139E-01  0.1140E-01  0.1277E-03  0.1277E-03  0.1416E-03  0.1416E-03  0.1321E-03  0.1321E-03  0.0000E+00  0.0000E+00  0.0000E+00  0.0000E+00  0.0000E+00  0.0000E+00  0.0000E+00  0.0000E+00  0.0000E+00  0.0000E+00
    -10.866  0.1325E-01  0.1325E-01  0.1720E-03  0.1720E-03  0.1969E-03  0.1969E-03  0.1846E-03  0.1846E-03  0.0000E+00  0.0000E+00  0.0000E+00  0.0000E+00  0.0000E+00  0.0000E+00  0.0000E+00  0.0000E+00  0.0000E+00  0.0000E+00
    -10.713  0.1430E-01  0.1430E-01  0.2184E-03  0.2184E-03  0.2660E-03  0.2660E-03  0.2422E-03  0.2422E-03  0.0000E+00  0.0000E+00  0.0000E+00  0.0000E+00  0.0000E+00  0.0000E+00  0.0000E+00  0.0000E+00  0.0000E+00  0.0000E+00
    -10.560  0.1491E-01  0.1491E-01  0.2786E-03  0.2787E-03  0.3387E-03  0.3388E-03  0.2977E-03  0.2977E-03  0.0000E+00  0.0000E+00  0.0000E+00  0.0000E+00  0.0000E+00  0.0000E+00  0.0000E+00  0.0000E+00  0.0000E+00  0.0000E+00
    -10.406  0.1564E-01  0.1564E-01  0.3469E-03  0.3470E-03  0.4263E-03  0.4263E-03  0.3536E-03  0.3536E-03  0.0000E+00  0.0000E+00  0.0000E+00  0.0000E+00  0.0000E+00  0.0000E+00  0.0000E+00  0.0000E+00  0.0000E+00  0.0000E+00
    -10.253  0.1658E-01  0.1658E-01  0.4051E-03  0.4051E-03  0.5176E-03  0.5177E-03  0.4168E-03  0.4168E-03  0.0000E+00  0.0000E+00  0.0000E+00  0.0000E+00  0.0000E+00  0.0000E+00  0.0000E+00  0.0000E+00  0.0000E+00  0.0000E+00
    -10.100  0.1751E-01  0.1751E-01  0.4627E-03  0.4627E-03  0.6146E-03  0.6147E-03  0.4843E-03  0.4844E-03  0.0000E+00  0.0000E+00  0.0000E+00  0.0000E+00  0.0000E+00  0.0000E+00  0.0000E+00  0.0000E+00  0.0000E+00  0.0000E+00
     -9.946  0.1810E-01  0.1810E-01  0.5355E-03  0.5356E-03  0.7213E-03  0.7214E-03  0.5560E-03  0.5560E-03  0.0000E+00  0.0000E+00  0.0000E+00  0.0000E+00  0.0000E+00  0.0000E+00  0.0000E+00  0.0000E+00  0.0000E+00  0.0000E+00
     -9.793  0.1884E-01  0.1884E-01  0.6153E-03  0.6153E-03  0.7830E-03  0.7830E-03  0.6301E-03  0.6302E-03  0.0000E+00  0.0000E+00  0.0000E+00  0.0000E+00  0.0000E+00  0.0000E+00  0.0000E+00  0.0000E+00  0.0000E+00  0.0000E+00
     -9.640  0.1972E-01  0.1972E-01  0.6920E-03  0.6920E-03  0.8402E-03  0.8402E-03  0.7044E-03  0.7044E-03  0.0000E+00  0.0000E+00  0.0000E+00  0.0000E+00  0.0000E+00  0.0000E+00  0.0000E+00  0.0000E+00  0.0000E+00  0.0000E+00
     -9.487  0.2061E-01  0.2061E-01  0.7690E-03  0.7691E-03  0.8920E-03  0.8920E-03  0.7822E-03  0.7822E-03  0.0000E+00  0.0000E+00  0.0000E+00  0.0000E+00  0.0000E+00  0.0000E+00  0.0000E+00  0.0000E+00  0.0000E+00  0.0000E+00
     -9.333  0.2154E-01  0.2154E-01  0.8421E-03  0.8422E-03  0.9510E-03  0.9511E-03  0.8669E-03  0.8669E-03  0.0000E+00  0.0000E+00  0.0000E+00  0.0000E+00  0.0000E+00  0.0000E+00  0.0000E+00  0.0000E+00  0.0000E+00  0.0000E+00
     -9.180  0.2243E-01  0.2243E-01  0.9224E-03  0.9224E-03  0.1024E-02  0.1024E-02  0.9571E-03  0.9571E-03  0.0000E+00  0.0000E+00  0.0000E+00  0.0000E+00  0.0000E+00  0.0000E+00  0.0000E+00  0.0000E+00  0.0000E+00  0.0000E+00
     -9.027  0.2313E-01  0.2313E-01  0.1018E-02  0.1018E-02  0.1101E-02  0.1101E-02  0.1051E-02  0.1051E-02  0.0000E+00  0.0000E+00  0.0000E+00  0.0000E+00  0.0000E+00  0.0000E+00  0.0000E+00  0.0000E+00  0.0000E+00  0.0000E+00
     -8.874  0.2387E-01  0.2387E-01  0.1114E-02  0.1114E-02  0.1180E-02  0.1180E-02  0.1144E-02  0.1144E-02  0.0000E+00  0.0000E+00  0.0000E+00  0.0000E+00  0.0000E+00  0.0000E+00  0.0000E+00  0.0000E+00  0.0000E+00  0.0000E+00
     -8.720  0.2468E-01  0.2468E-01  0.1208E-02  0.1208E-02  0.1260E-02  0.1260E-02  0.1238E-02  0.1238E-02  0.0000E+00  0.0000E+00  0.0000E+00  0.0000E+00  0.0000E+00  0.0000E+00  0.0000E+00  0.0000E+00  0.0000E+00  0.0000E+00
     -8.567  0.2546E-01  0.2546E-01  0.1304E-02  0.1304E-02  0.1342E-02  0.1342E-02  0.1334E-02  0.1334E-02  0.0000E+00  0.0000E+00  0.0000E+00  0.0000E+00  0.0000E+00  0.0000E+00  0.0000E+00  0.0000E+00  0.0000E+00  0.0000E+00
     -8.414  0.2605E-01  0.2605E-01  0.1404E-02  0.1404E-02  0.1438E-02  0.1438E-02  0.1432E-02  0.1432E-02  0.0000E+00  0.0000E+00  0.0000E+00  0.0000E+00  0.0000E+00  0.0000E+00  0.0000E+00  0.0000E+00  0.0000E+00  0.0000E+00
     -8.260  0.2667E-01  0.2668E-01  0.1504E-02  0.1504E-02  0.1548E-02  0.1548E-02  0.1534E-02  0.1534E-02  0.0000E+00  0.0000E+00  0.0000E+00  0.0000E+00  0.0000E+00  0.0000E+00  0.0000E+00  0.0000E+00  0.0000E+00  0.0000E+00
     -8.107  0.2731E-01  0.2731E-01  0.1607E-02  0.1607E-02  0.1653E-02  0.1653E-02  0.1642E-02  0.1642E-02  0.0000E+00  0.0000E+00  0.0000E+00  0.0000E+00  0.0000E+00  0.0000E+00  0.0000E+00  0.0000E+00  0.0000E+00  0.0000E+00
     -7.954  0.2788E-01  0.2788E-01  0.1722E-02  0.1722E-02  0.1757E-02  0.1757E-02  0.1754E-02  0.1754E-02  0.0000E+00  0.0000E+00  0.0000E+00  0.0000E+00  0.0000E+00  0.0000E+00  0.0000E+00  0.0000E+00  0.0000E+00  0.0000E+00
     -7.801  0.2851E-01  0.2851E-01  0.1833E-02  0.1833E-02  0.1859E-02  0.1859E-02  0.1866E-02  0.1866E-02  0.0000E+00  0.0000E+00  0.0000E+00  0.0000E+00  0.0000E+00  0.0000E+00  0.0000E+00  0.0000E+00  0.0000E+00  0.0000E+00
     -7.647  0.2919E-01  0.2919E-01  0.1944E-02  0.1944E-02  0.1959E-02  0.1959E-02  0.1981E-02  0.1981E-02  0.0000E+00  0.0000E+00  0.0000E+00  0.0000E+00  0.0000E+00  0.0000E+00  0.0000E+00  0.0000E+00  0.0000E+00  0.0000E+00
     -7.494  0.2992E-01  0.2992E-01  0.2056E-02  0.2056E-02  0.2064E-02  0.2064E-02  0.2099E-02  0.2099E-02  0.0000E+00  0.0000E+00  0.0000E+00  0.0000E+00  0.0000E+00  0.0000E+00  0.0000E+00  0.0000E+00  0.0000E+00  0.0000E+00
     -7.341  0.3064E-01  0.3065E-01  0.2172E-02  0.2172E-02  0.2189E-02  0.2189E-02  0.2220E-02  0.2220E-02  0.0000E+00  0.0000E+00  0.0000E+00  0.0000E+00  0.0000E+00  0.0000E+00  0.0000E+00  0.0000E+00  0.0000E+00  0.0000E+00
     -7.188  0.3143E-01  0.3143E-01  0.2290E-02  0.2290E-02  0.2312E-02  0.2312E-02  0.2342E-02  0.2342E-02  0.0000E+00  0.0000E+00  0.0000E+00  0.0000E+00  0.0000E+00  0.0000E+00  0.0000E+00  0.0000E+00  0.0000E+00  0.0000E+00
     -7.034  0.3231E-01  0.3231E-01  0.2409E-02  0.2409E-02  0.2435E-02  0.2435E-02  0.2472E-02  0.2472E-02  0.0000E+00  0.0000E+00  0.0000E+00  0.0000E+00  0.0000E+00  0.0000E+00  0.0000E+00  0.0000E+00  0.0000E+00  0.0000E+00
     -6.881  0.3355E-01  0.3355E-01  0.2544E-02  0.2544E-02  0.2581E-02  0.2581E-02  0.2625E-02  0.2625E-02  0.0000E+00  0.0000E+00  0.0000E+00  0.0000E+00  0.0000E+00  0.0000E+00  0.0000E+00  0.0000E+00  0.0000E+00  0.0000E+00
     -6.728  0.3498E-01  0.3498E-01  0.2695E-02  0.2695E-02  0.2728E-02  0.2728E-02  0.2795E-02  0.2795E-02  0.0000E+00  0.0000E+00  0.0000E+00  0.0000E+00  0.0000E+00  0.0000E+00  0.0000E+00  0.0000E+00  0.0000E+00  0.0000E+00
     -6.574  0.3681E-01  0.3681E-01  0.2860E-02  0.2860E-02  0.2876E-02  0.2876E-02  0.3003E-02  0.3003E-02  0.0000E+00  0.0000E+00  0.0000E+00  0.0000E+00  0.0000E+00  0.0000E+00  0.0000E+00  0.0000E+00  0.0000E+00  0.0000E+00
     -6.421  0.3945E-01  0.3945E-01  0.3074E-02  0.3074E-02  0.3037E-02  0.3037E-02  0.3311E-02  0.3312E-02  0.0000E+00  0.0000E+00  0.0000E+00  0.0000E+00  0.0000E+00  0.0000E+00  0.0000E+00  0.0000E+00  0.0000E+00  0.0000E+00
     -6.268  0.4479E-01  0.4479E-01  0.3462E-02  0.3462E-02  0.3240E-02  0.3240E-02  0.3943E-02  0.3943E-02  0.0000E+00  0.0000E+00  0.0000E+00  0.0000E+00  0.0000E+00  0.0000E+00  0.0000E+00  0.0000E+00  0.0000E+00  0.0000E+00
     -6.115  0.4246E-01  0.4246E-01  0.3375E-02  0.3375E-02  0.3412E-02  0.3412E-02  0.3645E-02  0.3645E-02  0.0000E+00  0.0000E+00  0.0000E+00  0.0000E+00  0.0000E+00  0.0000E+00  0.0000E+00  0.0000E+00  0.0000E+00  0.0000E+00