    4    4  100    2
  0.5717550E+01  0.2513094E-09  0.2513094E-09  0.4181402E-09  0.1500000E-16
   1.0000000000000000E-004
  CAR 
 unknown system                          
     16     96     16
 
  0.3742002E-15  0.3742002E-15  0.3742002E-15  0.8503401E-03
    1      -11.688157    -11.688221   1.000000   1.000000
    2       -5.825629     -5.825699   1.000000   1.000000
    3       -3.490682     -3.490709   1.000000   1.000000
    4        7.576211      7.576230   1.000000   1.000000
    5        7.576304      7.576314   1.000000   1.000000
    6       10.264241     10.264257   1.000000   1.000000
    7       10.840031     10.840055   1.000000   1.000000
    8       10.840133     10.840153   1.000000   1.000000
    9       15.862798     15.862815   0.000000   0.000000
   10       15.862882     15.862916   0.000000   0.000000
   11       16.328313     16.328332   0.000000   0.000000
   12       19.559162     19.559062   0.000000   0.000000
   13       20.657893     20.657933   0.000000   0.000000
   14       20.658009     20.658050   0.000000   0.000000
   15       26.165715     26.165551   0.000000   0.000000
   16       29.345316     29.345377   0.000000   0.000000
 
  0.7142857E-01  0.3742194E-15  0.3742002E-15  0.5102041E-02
    1      -11.556917    -11.556981   1.000000   1.000000
    2       -5.708086     -5.708155   1.000000   1.000000
    3       -3.366420     -3.366448   1.000000   1.000000
    4        6.914927      6.914937   1.000000   1.000000
    5        7.294870      7.294881   1.000000   1.000000
    6       10.062999     10.063014   1.000000   1.000000
    7       10.272862     10.272880   1.000000   1.000000
    8       10.589742     10.589763   1.000000   1.000000
    9       15.959759     15.959784   0.000000   0.000000
   10       16.227194     16.227216   0.000000   0.000000
   11       16.572127     16.572145   0.000000   0.000000
   12       19.961209     19.961119   0.000000   0.000000
   13       20.793002     20.793038   0.000000   0.000000
   14       21.095806     21.095848   0.000000   0.000000
   15       26.305427     26.305272   0.000000   0.000000
   16       29.182998     29.002613   0.000000   0.000000
 
  0.1428571E+00  0.3778240E-15  0.3742002E-15  0.5102041E-02
    1      -11.164175    -11.164239   1.000000   1.000000
    2       -5.356252     -5.356321   1.000000   1.000000
    3       -2.999119     -2.999146   1.000000   1.000000
    4        5.278803      5.278799   1.000000   1.000000
    5        6.613116      6.613126   1.000000   1.000000
    6        8.875078      8.875086   1.000000   1.000000
    7        9.505313      9.505326   1.000000   1.000000
    8        9.969825      9.969844   1.000000   1.000000
    9       16.031822     16.031832   0.000000   0.000000
   10       17.097418     17.097443   0.000000   0.000000
   11       17.104310     17.104327   0.000000   0.000000
   12       20.951383     20.951322   0.000000   0.000000
   13       21.076396     21.076416   0.000000   0.000000
   14       22.236633     22.236680   0.000000   0.000000
   15       26.713071     26.712947   0.000000   0.000000
   16       26.760797     26.760784   0.000000   0.000000
 
  0.2142857E+00  0.3806259E-15  0.3742002E-15  0.5102041E-02
    1      -10.513315    -10.513378   1.000000   1.000000
    2       -4.772570     -4.772637   1.000000   1.000000
    3       -2.410161     -2.410189   1.000000   1.000000
    4        3.219121      3.219106   1.000000   1.000000
    5        5.812131      5.812139   1.000000   1.000000
    6        7.104423      7.104418   1.000000   1.000000
    7        8.643605      8.643615   1.000000   1.000000
    8        9.227460      9.227477   1.000000   1.000000
    9       15.954142     15.954135   0.000000   0.000000
   10       17.704105     17.704121   0.000000   0.000000
   11       18.046814     18.046841   0.000000   0.000000
   12       21.391213     21.391201   0.000000   0.000000
   13       21.556075     21.556054   0.000000   0.000000
   14       23.775297     23.775351   0.000000   0.000000
   15       25.692875     25.692850   0.000000   0.000000
   16       27.261556     27.261502   0.000000   0.000000
 
  0.2857143E+00  0.3671018E-15  0.3742002E-15  0.5102041E-02
    1       -9.611607     -9.611670   1.000000   1.000000
    2       -3.962352     -3.962416   1.000000   1.000000
    3       -1.680031     -1.680064   1.000000   1.000000
    4        1.115449      1.115431   1.000000   1.000000
    5        5.076310      5.076317   1.000000   1.000000
    6        5.210742      5.210725   1.000000   1.000000
    7        7.531622      7.531626   1.000000   1.000000
    8        8.532787      8.532803   1.000000   1.000000
    9       15.790855     15.790834   0.000000   0.000000
   10       18.307958     18.307977   0.000000   0.000000
   11       18.741089     18.741116   0.000000   0.000000
   12       20.819113     20.819111   0.000000   0.000000
   13       21.671704     21.671656   0.000000   0.000000
   14       25.399938     25.400001   0.000000   0.000000
   15       26.616475     26.616459   0.000000   0.000000
   16       26.743786     26.743809   0.000000   0.000000
 
  0.3571429E+00  0.3813174E-15  0.3742002E-15  0.5102041E-02
    1       -8.475631     -8.475693   1.000000   1.000000
    2       -2.936941     -2.937002   1.000000   1.000000
    3       -1.653191     -1.653241   1.000000   1.000000
    4       -0.067241     -0.067246   1.000000   1.000000
    5        3.340384      3.340358   1.000000   1.000000
    6        4.506265      4.506270   1.000000   1.000000
    7        6.276746      6.276746   1.000000   1.000000
    8        7.990391      7.990407   1.000000   1.000000
    9       15.610850     15.610819   0.000000   0.000000
   10       18.872761     18.872781   0.000000   0.000000
   11       19.104509     19.104534   0.000000   0.000000
   12       19.828139     19.828142   0.000000   0.000000
   13       21.958132     21.958058   0.000000   0.000000
   14       25.708455     25.708472   0.000000   0.000000
   15       26.826428     26.826500   0.000000   0.000000
   16       28.276748     28.276750   0.000000   0.000000
 
  0.4285714E+00  0.3841193E-15  0.3742002E-15  0.5102041E-02
    1       -7.161873     -7.161935   1.000000   1.000000
    2       -3.300320     -3.300366   1.000000   1.000000
    3       -1.731978     -1.732037   1.000000   1.000000
    4        0.626782      0.626769   1.000000   1.000000
    5        1.604298      1.604265   1.000000   1.000000
    6        4.148614      4.148618   1.000000   1.000000
    7        5.090990      5.090987   1.000000   1.000000
    8        7.649277      7.649292   1.000000   1.000000
    9       15.469358     15.469321   0.000000   0.000000
   10       19.186967     19.186974   0.000000   0.000000
   11       19.241177     19.241199   0.000000   0.000000
   12       19.301719     19.301736   0.000000   0.000000
   13       22.309741     22.309660   0.000000   0.000000
   14       24.752735     24.752741   0.000000   0.000000
   15       27.799122     27.799201   0.000000   0.000000
   16       29.421413     29.421409   0.000000   0.000000
 
  0.5000000E+00  0.3542694E-15  0.3742002E-15  0.2551020E-02
    1       -6.191563     -6.191629   1.000000   1.000000
    2       -4.450912     -4.450953   1.000000   1.000000
    3       -0.763007     -0.763071   1.000000   1.000000
    4        0.453733      0.453705   1.000000   1.000000
    5        1.105746      1.105732   1.000000   1.000000
    6        4.026682      4.026686   1.000000   1.000000
    7        4.505063      4.505059   1.000000   1.000000
    8        7.531680      7.531694   1.000000   1.000000
    9       15.413970     15.413931   0.000000   0.000000
   10       18.973240     18.973248   0.000000   0.000000
   11       19.269642     19.269663   0.000000   0.000000
   12       19.459864     19.459879   0.000000   0.000000
   13       22.545674     22.545594   0.000000   0.000000
   14       24.281725     24.281727   0.000000   0.000000
   15       28.118575     28.118658   0.000000   0.000000
   16       29.762027     29.724500   0.000000   0.000000
 
  0.7142857E-01  0.7142857E-01  0.3742002E-15  0.5102041E-02
    1      -11.294920    -11.294984   1.000000   1.000000
    2       -5.473393     -5.473461   1.000000   1.000000
    3       -3.120543     -3.120571   1.000000   1.000000
    4        5.866852      5.866852   1.000000   1.000000
    5        6.701105      6.701114   1.000000   1.000000
    6        9.361420      9.361432   1.000000   1.000000
    7        9.700375      9.700389   1.000000   1.000000
    8       10.088090     10.088108   1.000000   1.000000
    9       16.266691     16.266714   0.000000   0.000000
   10       16.617591     16.617607   0.000000   0.000000
   11       16.965849     16.965866   0.000000   0.000000
   12       20.653155     20.653086   0.000000   0.000000
   13       21.063899     21.063932   0.000000   0.000000
   14       21.811400     21.811438   0.000000   0.000000
   15       26.586756     26.586623   0.000000   0.000000
   16       27.696639     27.696644   0.000000   0.000000
 
  0.1428571E+00  0.7142857E-01  0.3742002E-15  0.1020408E-01
    1      -10.773057    -10.773120   1.000000   1.000000
    2       -5.005642     -5.005709   1.000000   1.000000
    3       -2.641195     -2.641223   1.000000   1.000000
    4        4.162870      4.162859   1.000000   1.000000
    5        5.786392      5.786399   1.000000   1.000000
    6        7.896630      7.896631   1.000000   1.000000
    7        9.027694      9.027706   1.000000   1.000000
    8        9.288644      9.288660   1.000000   1.000000
    9       16.440442     16.440448   0.000000   0.000000
   10       17.382089     17.382110   0.000000   0.000000
   11       17.563660     17.563676   0.000000   0.000000
   12       21.437856     21.437818   0.000000   0.000000
   13       21.489053     21.489069   0.000000   0.000000
   14       22.973198     22.973230   0.000000   0.000000
   15       26.232262     26.232253   0.000000   0.000000
   16       27.128381     27.128294   0.000000   0.000000
 
  0.2142857E+00  0.7142857E-01  0.3742002E-15  0.1020408E-01
    1       -9.996446     -9.996508   1.000000   1.000000
    2       -4.308579     -4.308644   1.000000   1.000000
    3       -1.968703     -1.968733   1.000000   1.000000
    4        2.147523      2.147505   1.000000   1.000000
    5        4.916886      4.916890   1.000000   1.000000
    6        6.139717      6.139706   1.000000   1.000000
    7        8.074993      8.075001   1.000000   1.000000
    8        8.495357      8.495371   1.000000   1.000000
    9       16.354674     16.354665   0.000000   0.000000
   10       18.175275     18.175299   0.000000   0.000000
   11       18.224369     18.224386   0.000000   0.000000
   12       21.354502     21.354487   0.000000   0.000000
   13       21.850265     21.850244   0.000000   0.000000
   14       24.438658     24.438696   0.000000   0.000000
   15       25.974609     25.974600   0.000000   0.000000
   16       27.208728     27.208750   0.000000   0.000000
 
  0.2857143E+00  0.7142857E-01  0.3742002E-15  0.1020408E-01
    1       -8.975972     -8.976033   1.000000   1.000000
    2       -3.390110     -3.390172   1.000000   1.000000
    3       -1.349825     -1.349868   1.000000   1.000000
    4        0.303806      0.303795   1.000000   1.000000
    5        4.217533      4.217535   1.000000   1.000000
    6        4.295440      4.295418   1.000000   1.000000
    7        6.904588      6.904591   1.000000   1.000000
    8        7.839337      7.839349   1.000000   1.000000
    9       16.226343     16.226326   0.000000   0.000000
   10       18.324573     18.324589   0.000000   0.000000
   11       18.889382     18.889402   0.000000   0.000000
   12       20.888514     20.888514   0.000000   0.000000
   13       22.113468     22.113413   0.000000   0.000000
   14       25.909284     25.909322   0.000000   0.000000
   15       26.304134     26.304173   0.000000   0.000000
   16       27.094405     27.094411   0.000000   0.000000
 
  0.3571429E+00  0.7142857E-01  0.3742002E-15  0.1020408E-01
    1       -7.740048     -7.740108   1.000000   1.000000
    2       -2.377345     -2.377393   1.000000   1.000000
    3       -2.269103     -2.269163   1.000000   1.000000
    4        0.304211      0.304201   1.000000   1.000000
    5        2.504463      2.504432   1.000000   1.000000
    6        3.743002      3.743002   1.000000   1.000000
    7        5.659328      5.659327   1.000000   1.000000
    8        7.379566      7.379577   1.000000   1.000000
    9       16.144631     16.144606   0.000000   0.000000
   10       17.869992     17.870001   0.000000   0.000000
   11       19.490488     19.490511   0.000000   0.000000
   12       20.806469     20.806480   0.000000   0.000000
   13       22.371906     22.371830   0.000000   0.000000
   14       25.176420     25.176431   0.000000   0.000000
   15       27.302265     27.302334   0.000000   0.000000
   16       28.716818     28.716841   0.000000   0.000000
 
  0.4285714E+00  0.7142857E-01  0.3742002E-15  0.1020408E-01
    1       -6.435377     -6.435440   1.000000   1.000000
    2       -3.998900     -3.998944   1.000000   1.000000
    3       -1.040978     -1.041038   1.000000   1.000000
    4        0.926833      0.926800   1.000000   1.000000
    5        1.036324      1.036310   1.000000   1.000000
    6        3.534433      3.534433   1.000000   1.000000
    7        4.657507      4.657503   1.000000   1.000000
    8        7.141840      7.141851   1.000000   1.000000
    9       16.127205     16.127173   0.000000   0.000000
   10       17.470110     17.470119   0.000000   0.000000
   11       19.869566     19.869588   0.000000   0.000000
   12       20.841137     20.841154   0.000000   0.000000
   13       22.661710     22.661628   0.000000   0.000000
   14       24.394679     24.394681   0.000000   0.000000
   15       28.019309     28.019386   0.000000   0.000000
   16       29.617512     29.617511   0.000000   0.000000
 
  0.1428571E+00  0.1428571E+00  0.3742002E-15  0.5102041E-02
    1      -10.125247    -10.125310   1.000000   1.000000
    2       -4.424388     -4.424454   1.000000   1.000000
    3       -2.072692     -2.072721   1.000000   1.000000
    4        2.791461      2.791442   1.000000   1.000000
    5        4.491416      4.491418   1.000000   1.000000
    6        6.666872      6.666863   1.000000   1.000000
    7        8.225856      8.225868   1.000000   1.000000
    8        8.301597      8.301606   1.000000   1.000000
    9       17.205331     17.205345   0.000000   0.000000
   10       17.503214     17.503223   0.000000   0.000000
   11       18.265879     18.265893   0.000000   0.000000
   12       21.436427     21.436400   0.000000   0.000000
   13       22.277794     22.277813   0.000000   0.000000
   14       23.703417     23.703415   0.000000   0.000000
   15       25.878397     25.878397   0.000000   0.000000
   16       27.779773     27.779740   0.000000   0.000000
 
  0.2142857E+00  0.1428571E+00  0.3742002E-15  0.1020408E-01
    1       -9.228621     -9.228682   1.000000   1.000000
    2       -3.618617     -3.618680   1.000000   1.000000
    3       -1.398743     -1.398779   1.000000   1.000000
    4        1.171134      1.171115   1.000000   1.000000
    5        3.396773      3.396771   1.000000   1.000000
    6        5.162247      5.162227   1.000000   1.000000
    7        7.260588      7.260596   1.000000   1.000000
    8        7.320837      7.320843   1.000000   1.000000
    9       16.873354     16.873364   0.000000   0.000000
   10       18.287897     18.287901   0.000000   0.000000
   11       19.067422     19.067436   0.000000   0.000000
   12       21.278850     21.278831   0.000000   0.000000
   13       22.897366     22.897357   0.000000   0.000000
   14       24.782816     24.782817   0.000000   0.000000
   15       25.836361     25.836362   0.000000   0.000000
   16       26.654784     26.654817   0.000000   0.000000
 
  0.2857143E+00  0.1428571E+00  0.3742002E-15  0.1020408E-01
    1       -8.100607     -8.100667   1.000000   1.000000
    2       -2.600961     -2.601021   1.000000   1.000000
    3       -1.502426     -1.502479   1.000000   1.000000
    4        0.290703      0.290698   1.000000   1.000000
    5        2.693340      2.693335   1.000000   1.000000
    6        3.490399      3.490371   1.000000   1.000000
    7        6.164781      6.164782   1.000000   1.000000
    8        6.584309      6.584314   1.000000   1.000000
    9       16.407777     16.407787   0.000000   0.000000
   10       18.315529     18.315517   0.000000   0.000000
   11       19.886726     19.886745   0.000000   0.000000
   12       21.691409     21.691411   0.000000   0.000000
   13       23.153930     23.153885   0.000000   0.000000
   14       25.531753     25.531764   0.000000   0.000000
   15       26.367372     26.367415   0.000000   0.000000
   16       26.754204     26.754213   0.000000   0.000000
 
  0.3571429E+00  0.1428571E+00  0.3742002E-15  0.1020408E-01
    1       -6.797669     -6.797730   1.000000   1.000000
    2       -3.056497     -3.056546   1.000000   1.000000
    3       -1.409192     -1.409250   1.000000   1.000000
    4        0.894413      0.894400   1.000000   1.000000
    5        1.849120      1.849086   1.000000   1.000000
    6        2.388837      2.388834   1.000000   1.000000
    7        5.012770      5.012768   1.000000   1.000000
    8        6.189137      6.189140   1.000000   1.000000
    9       16.032018     16.032025   0.000000   0.000000
   10       18.056046     18.056025   0.000000   0.000000
   11       20.622370     20.622397   0.000000   0.000000
   12       22.202406     22.202420   0.000000   0.000000
   13       23.291134     23.291067   0.000000   0.000000
   14       24.647662     24.647666   0.000000   0.000000
   15       27.576322     27.576384   0.000000   0.000000
   16       28.335690     28.335715   0.000000   0.000000
 
  0.4285714E+00  0.1428571E+00  0.3742002E-15  0.5102041E-02
    1       -5.830204     -5.830269   1.000000   1.000000
    2       -4.176270     -4.176314   1.000000   1.000000
    3       -0.456006     -0.456069   1.000000   1.000000
    4        0.737081      0.737051   1.000000   1.000000
    5        1.233104      1.233086   1.000000   1.000000
    6        2.441999      2.442001   1.000000   1.000000
    7        4.390435      4.390430   1.000000   1.000000
    8        6.057443      6.057446   1.000000   1.000000
    9       15.887298     15.887305   0.000000   0.000000
   10       17.942541     17.942519   0.000000   0.000000
   11       20.953980     20.954013   0.000000   0.000000
   12       22.392051     22.392072   0.000000   0.000000
   13       23.387603     23.387527   0.000000   0.000000
   14       24.169681     24.169682   0.000000   0.000000
   15       28.034309     28.034382   0.000000   0.000000
   16       29.927239     29.927321   0.000000   0.000000
 
  0.2142857E+00  0.2142857E+00  0.3742002E-15  0.5102041E-02
    1       -8.222512     -8.222572   1.000000   1.000000
    2       -2.712749     -2.712809   1.000000   1.000000
    3       -1.159463     -1.159517   1.000000   1.000000
    4        0.603542      0.603537   1.000000   1.000000
    5        1.923745      1.923740   1.000000   1.000000
    6        4.092541      4.092513   1.000000   1.000000
    7        6.011523      6.011526   1.000000   1.000000
    8        6.371029      6.371031   1.000000   1.000000
    9       16.101855     16.101866   0.000000   0.000000
   10       19.588069     19.588073   0.000000   0.000000
   11       20.023945     20.023957   0.000000   0.000000
   12       21.488872     21.488854   0.000000   0.000000
   13       24.253641     24.253650   0.000000   0.000000
   14       25.101794     25.101764   0.000000   0.000000
   15       25.829523     25.829526   0.000000   0.000000
   16       25.861811     25.861840   0.000000   0.000000
 
  0.2857143E+00  0.2142857E+00  0.3742002E-15  0.1020408E-01
    1       -7.008414     -7.008474   1.000000   1.000000
    2       -2.144763     -2.144819   1.000000   1.000000
    3       -1.613751     -1.613808   1.000000   1.000000
    4        0.780008      0.779998   1.000000   1.000000
    5        1.308839      1.308836   1.000000   1.000000
    6        2.778373      2.778338   1.000000   1.000000
    7        5.176213      5.176213   1.000000   1.000000
    8        5.302086      5.302085   1.000000   1.000000
    9       15.258760     15.258766   0.000000   0.000000
   10       20.281014     20.281009   0.000000   0.000000
   11       20.973299     20.973312   0.000000   0.000000
   12       22.418531     22.418533   0.000000   0.000000
   13       24.696482     24.696453   0.000000   0.000000
   14       24.912014     24.912026   0.000000   0.000000
   15       26.472944     26.472968   0.000000   0.000000
   16       26.533010     26.533022   0.000000   0.000000
 
  0.3571429E+00  0.2142857E+00  0.3742002E-15  0.1020408E-01
    1       -5.722186     -5.722247   1.000000   1.000000
    2       -3.556209     -3.556261   1.000000   1.000000
    3       -0.419005     -0.419061   1.000000   1.000000
    4        0.461678      0.461663   1.000000   1.000000
    5        1.402196      1.402159   1.000000   1.000000
    6        2.044312      2.044310   1.000000   1.000000
    7        4.341102      4.341097   1.000000   1.000000
    8        4.806375      4.806373   1.000000   1.000000
    9       14.780824     14.780828   0.000000   0.000000
   10       20.329860     20.329852   0.000000   0.000000
   11       21.758428     21.758446   0.000000   0.000000
   12       23.408597     23.408615   0.000000   0.000000
   13       24.098772     24.098774   0.000000   0.000000
   14       24.770236     24.770196   0.000000   0.000000
   15       27.737351     27.737406   0.000000   0.000000
   16       27.834191     27.834220   0.000000   0.000000
 
  0.2857143E+00  0.2857143E+00  0.3742002E-15  0.5102041E-02
    1       -5.756943     -5.757002   1.000000   1.000000
    2       -3.016170     -3.016231   1.000000   1.000000
    3       -0.475342     -0.475397   1.000000   1.000000
    4       -0.223680     -0.223686   1.000000   1.000000
    5        1.990727      1.990684   1.000000   1.000000
    6        2.042306      2.042302   1.000000   1.000000
    7        4.070707      4.070707   1.000000   1.000000
    8        4.365525      4.365521   1.000000   1.000000
    9       14.373927     14.373930   0.000000   0.000000
   10       21.989900     21.989908   0.000000   0.000000
   11       22.425804     22.425813   0.000000   0.000000
   12       22.910774     22.910777   0.000000   0.000000
   13       24.101814     24.101816   0.000000   0.000000
   14       26.349686     26.349677   0.000000   0.000000
   15       26.702784     26.702809   0.000000   0.000000
   16       26.736376     26.736404   0.000000   0.000000
 
  0.3571429E+00  0.2857143E+00  0.3742002E-15  0.5102041E-02
    1       -4.755287     -4.755349   1.000000   1.000000
    2       -3.883546     -3.883605   1.000000   1.000000
    3       -0.645441     -0.645447   1.000000   1.000000
    4        0.464197      0.464141   1.000000   1.000000
    5        1.178845      1.178800   1.000000   1.000000
    6        2.739873      2.739869   1.000000   1.000000
    7        3.677388      3.677383   1.000000   1.000000
    8        3.678974      3.678975   1.000000   1.000000
    9       14.055147     14.055148   0.000000   0.000000
   10       22.645573     22.645579   0.000000   0.000000
   11       22.799684     22.799691   0.000000   0.000000
   12       23.532081     23.532081   0.000000   0.000000
   13       24.021569     24.021591   0.000000   0.000000
   14       26.478433     26.478431   0.000000   0.000000
   15       26.612507     26.612519   0.000000   0.000000
   16       27.615848     27.615886   0.000000   0.000000
 
  0.3742002E-15  0.3742002E-15  0.1666667E+00  0.1700680E-02
    1      -11.494031    -11.494095   1.000000   1.000000
    2       -7.035023     -7.035086   1.000000   1.000000
    3       -1.952213     -1.952246   1.000000   1.000000
    4        7.730605      7.730624   1.000000   1.000000
    5        7.730697      7.730708   1.000000   1.000000
    6        9.017022      9.017028   1.000000   1.000000
    7       10.493253     10.493276   1.000000   1.000000
    8       10.493351     10.493370   1.000000   1.000000
    9       16.238502     16.238519   0.000000   0.000000
   10       16.238585     16.238619   0.000000   0.000000
   11       17.015998     17.016019   0.000000   0.000000
   12       19.501141     19.501050   0.000000   0.000000
   13       20.296216     20.296253   0.000000   0.000000
   14       20.296328     20.296369   0.000000   0.000000
   15       26.273009     26.272852   0.000000   0.000000
   16       29.001034     29.001075   0.000000   0.000000
 
  0.7142857E-01  0.3742194E-15  0.1666667E+00  0.1020408E-01
    1      -11.362986    -11.363050   1.000000   1.000000
    2       -6.911697     -6.911760   1.000000   1.000000
    3       -1.837007     -1.837040   1.000000   1.000000
    4        7.071611      7.071621   1.000000   1.000000
    5        7.451399      7.451411   1.000000   1.000000
    6        8.915701      8.915707   1.000000   1.000000
    7        9.927498      9.927516   1.000000   1.000000
    8       10.244861     10.244881   1.000000   1.000000
    9       16.234512     16.234535   0.000000   0.000000
   10       16.607567     16.607591   0.000000   0.000000
   11       17.250793     17.250816   0.000000   0.000000
   12       19.876093     19.876018   0.000000   0.000000
   13       20.434720     20.434750   0.000000   0.000000
   14       20.733268     20.733307   0.000000   0.000000
   15       26.360981     26.360834   0.000000   0.000000
   16       28.699204     28.699231   0.000000   0.000000
 
  0.1428571E+00  0.3778240E-15  0.1666667E+00  0.1020408E-01
    1      -10.970835    -10.970899   1.000000   1.000000
    2       -6.543045     -6.543107   1.000000   1.000000
    3       -1.497537     -1.497569   1.000000   1.000000
    4        5.442559      5.442556   1.000000   1.000000
    5        6.774222      6.774233   1.000000   1.000000
    6        8.271956      8.271955   1.000000   1.000000
    7        8.878888      8.878902   1.000000   1.000000
    8        9.625802      9.625820   1.000000   1.000000
    9       16.125634     16.125638   0.000000   0.000000
   10       17.505023     17.505050   0.000000   0.000000
   11       17.621224     17.621246   0.000000   0.000000
   12       20.471810     20.471806   0.000000   0.000000
   13       21.125316     21.125288   0.000000   0.000000
   14       21.869579     21.869623   0.000000   0.000000
   15       26.560945     26.560841   0.000000   0.000000
   16       27.214354     27.214345   0.000000   0.000000
 
  0.2142857E+00  0.3806259E-15  0.1666667E+00  0.1020408E-01
    1      -10.321033    -10.321096   1.000000   1.000000
    2       -5.933437     -5.933498   1.000000   1.000000
    3       -0.960002     -0.960036   1.000000   1.000000
    4        3.398794      3.398781   1.000000   1.000000
    5        5.976702      5.976710   1.000000   1.000000
    6        6.533443      6.533433   1.000000   1.000000
    7        8.318020      8.318031   1.000000   1.000000
    8        8.882850      8.882866   1.000000   1.000000
    9       15.938390     15.938376   0.000000   0.000000
   10       17.824176     17.824192   0.000000   0.000000
   11       18.507878     18.507908   0.000000   0.000000
   12       20.490027     20.490010   0.000000   0.000000
   13       22.294699     22.294691   0.000000   0.000000
   14       23.386899     23.386950   0.000000   0.000000
   15       25.694374     25.694376   0.000000   0.000000
   16       26.921062     26.921008   0.000000   0.000000
 
  0.2857143E+00  0.3671018E-15  0.1666667E+00  0.1020408E-01
    1       -9.420936     -9.420998   1.000000   1.000000
    2       -5.092443     -5.092502   1.000000   1.000000
    3       -0.373945     -0.373985   1.000000   1.000000
    4        1.387436      1.387422   1.000000   1.000000
    5        4.592241      4.592220   1.000000   1.000000
    6        5.244009      5.244016   1.000000   1.000000
    7        7.589624      7.589632   1.000000   1.000000
    8        8.189688      8.189703   1.000000   1.000000
    9       15.788974     15.788949   0.000000   0.000000
   10       17.964219     17.964230   0.000000   0.000000
   11       19.273422     19.273452   0.000000   0.000000
   12       19.894734     19.894704   0.000000   0.000000
   13       23.021647     23.021643   0.000000   0.000000
   14       24.801826     24.801828   0.000000   0.000000
   15       24.967190     24.967250   0.000000   0.000000
   16       27.613926     27.613919   0.000000   0.000000
 
  0.3571429E+00  0.3813174E-15  0.1666667E+00  0.1020408E-01
    1       -8.287359     -8.287420   1.000000   1.000000
    2       -4.045708     -4.045766   1.000000   1.000000
    3       -1.217351     -1.217395   1.000000   1.000000
    4        0.993626      0.993614   1.000000   1.000000
    5        2.705465      2.705436   1.000000   1.000000
    6        4.675020      4.675026   1.000000   1.000000
    7        6.658805      6.658810   1.000000   1.000000
    8        7.646876      7.646890   1.000000   1.000000
    9       15.684999     15.684967   0.000000   0.000000
   10       18.170640     18.170643   0.000000   0.000000
   11       19.119439     19.119412   0.000000   0.000000
   12       19.700639     19.700667   0.000000   0.000000
   13       23.267942     23.267912   0.000000   0.000000
   14       23.904652     23.904657   0.000000   0.000000
   15       26.325966     26.326034   0.000000   0.000000
   16       29.010021     29.010056   0.000000   0.000000
 
  0.4285714E+00  0.3841193E-15  0.1666667E+00  0.1020408E-01