       N       E                     dE             d eps       ncg     rms          rms(c)
DAV:   1    -0.518866739576E+02   -0.51887E+02   -0.78621E+03  6384   0.809E+02
DAV:   2    -0.106304937761E+03   -0.54418E+02   -0.50690E+02  9088   0.186E+02
DAV:   3    -0.108130187385E+03   -0.18252E+01   -0.18210E+01  6416   0.305E+01
DAV:   4    -0.108140763793E+03   -0.10576E-01   -0.10576E-01  7464   0.293E+00
DAV:   5    -0.108140848355E+03   -0.84562E-04   -0.84562E-04  6408   0.231E-01    0.391E+01
DAV:   6    -0.562283097355E+02    0.51913E+02   -0.25599E+01  6376   0.308E+01    0.215E+01
DAV:   7    -0.360840950693E+02    0.20144E+02   -0.38012E+01  7488   0.370E+01    0.320E+00
DAV:   8    -0.362124767419E+02   -0.12838E+00   -0.12113E+00  6720   0.687E+00    0.140E+00
DAV:   9    -0.362620719929E+02   -0.49595E-01   -0.11022E-01  6888   0.331E+00    0.301E-01
DAV:  10    -0.362748246546E+02   -0.12753E-01   -0.16505E-02  6848   0.131E+00    0.938E-02
DAV:  11    -0.362756522202E+02   -0.82757E-03   -0.65257E-04  7600   0.276E-01    0.503E-02
DAV:  12    -0.362760333245E+02   -0.38110E-03   -0.19808E-04  6840   0.143E-01    0.103E-02
DAV:  13    -0.362760498689E+02   -0.16544E-04   -0.12283E-05  8000   0.332E-02    0.478E-03
DAV:  14    -0.362760510306E+02   -0.11617E-05   -0.97384E-07  5496   0.103E-02    0.321E-03
DAV:  15    -0.362760517395E+02   -0.70891E-06   -0.64322E-07  4560   0.678E-03
   1 F= -.32707439E+02 E0= -.32707439E+02  d E =-.327074E+02  mag=     0.0000
       N       E                     dE             d eps       ncg     rms          rms(c)
DAV:   1    -0.362782475514E+02   -0.21965E-02   -0.10031E-02  7496   0.781E-01    0.790E-02
DAV:   2    -0.362781323280E+02    0.11522E-03   -0.17368E-04  6936   0.859E-02    0.429E-02
DAV:   3    -0.362780819943E+02    0.50334E-04   -0.76808E-05  7304   0.544E-02    0.265E-03
DAV:   4    -0.362780820257E+02   -0.31342E-07   -0.81105E-07  5176   0.660E-03
   2 F= -.32725585E+02 E0= -.32725585E+02  d E =-.181454E-01  mag=     0.0000
       N       E                     dE             d eps       ncg     rms          rms(c)
DAV:   1    -0.362773869757E+02    0.69502E-03   -0.90795E-02  7480   0.236E+00    0.238E-01
DAV:   2    -0.362763447245E+02    0.10423E-02   -0.15995E-03  6952   0.261E-01    0.129E-01
DAV:   3    -0.362758839327E+02    0.46079E-03   -0.68449E-04  7376   0.163E-01    0.810E-03
DAV:   4    -0.362758824860E+02    0.14467E-05   -0.74994E-06  6864   0.199E-02    0.322E-03
DAV:   5    -0.362758825619E+02   -0.75853E-07   -0.33911E-07  4432   0.521E-03
   3 F= -.32771439E+02 E0= -.32771439E+02  d E =-.640000E-01  mag=    -0.0000
       N       E                     dE             d eps       ncg     rms          rms(c)
DAV:   1    -0.362388849465E+02    0.36998E-01   -0.36802E-01  7496   0.481E+00    0.479E-01
DAV:   2    -0.362347052438E+02    0.41797E-02   -0.66193E-03  6896   0.533E-01    0.260E-01
DAV:   3    -0.362328480402E+02    0.18572E-02   -0.26922E-03  7440   0.328E-01    0.168E-02
DAV:   4    -0.362328402874E+02    0.77528E-05   -0.30201E-05  6880   0.404E-02    0.657E-03
DAV:   5    -0.362328393394E+02    0.94798E-06   -0.14622E-06  5680   0.107E-02
   4 F= -.32823200E+02 E0= -.32823200E+02  d E =-.115761E+00  mag=    -0.0000
       N       E                     dE             d eps       ncg     rms          rms(c)
DAV:   1    -0.361979378215E+02    0.34902E-01   -0.72011E-02  7568   0.214E+00    0.212E-01
DAV:   2    -0.361971218925E+02    0.81593E-03   -0.12365E-03  6976   0.233E-01    0.115E-01
DAV:   3    -0.361967618234E+02    0.36007E-03   -0.52432E-04  7456   0.145E-01    0.730E-03
DAV:   4    -0.361967608982E+02    0.92526E-06   -0.59413E-06  6768   0.179E-02
   5 F= -.32828425E+02 E0= -.32828425E+02  d E =-.120986E+00  mag=    -0.0000
       N       E                     dE             d eps       ncg     rms          rms(c)
DAV:   1    -0.361967536381E+02    0.81853E-05   -0.10376E-03  6352   0.234E-01    0.415E-03
DAV:   2    -0.361967543010E+02   -0.66286E-06   -0.86568E-06  8224   0.211E-02
   6 F= -.32828510E+02 E0= -.32828510E+02  d E =-.849324E-04  mag=    -0.0000
       N       E                     dE             d eps       ncg     rms          rms(c)
DAV:   1    -0.361966495552E+02    0.10408E-03   -0.30871E-03  6336   0.403E-01    0.669E-03
DAV:   2    -0.361966516361E+02   -0.20809E-05   -0.24710E-05  8288   0.356E-02    0.484E-03
DAV:   3    -0.361966510522E+02    0.58386E-06   -0.53683E-07  5024   0.693E-03
   7 F= -.32828565E+02 E0= -.32828565E+02  d E =-.140456E-03  mag=     0.0000
