PROCAR lm decomposed
# of k-points:   96         # of bands:   16         # of ions:    4

 k-point     1 :    0.00000000 0.00000000 0.00000000     weight = 0.00085034

band     1 # energy  -11.68815694 # occ.  1.00000000
 
ion      s     py     pz     px    dxy    dyz    dz2    dxz  x2-y2    tot
    1  0.143  0.000  0.000  0.000  0.000  0.000  0.000  0.000  0.000  0.143
    2  0.143  0.000  0.000  0.000  0.000  0.000  0.000  0.000  0.000  0.143
    3  0.143  0.000  0.000  0.000  0.000  0.000  0.000  0.000  0.000  0.143
    4  0.143  0.000  0.000  0.000  0.000  0.000  0.000  0.000  0.000  0.143
tot    0.572  0.000  0.000  0.000  0.000  0.000  0.000  0.000  0.000  0.572
 
band     2 # energy   -5.82562904 # occ.  1.00000000
 
ion      s     py     pz     px    dxy    dyz    dz2    dxz  x2-y2    tot
    1  0.151  0.000  0.016  0.000  0.000  0.000  0.000  0.000  0.000  0.167
    2  0.151  0.000  0.016  0.000  0.000  0.000  0.000  0.000  0.000  0.167
    3  0.151  0.000  0.016  0.000  0.000  0.000  0.000  0.000  0.000  0.167
    4  0.151  0.000  0.016  0.000  0.000  0.000  0.000  0.000  0.000  0.167
tot    0.603  0.000  0.065  0.000  0.000  0.000  0.000  0.000  0.000  0.668
 
band     3 # energy   -3.49068218 # occ.  1.00000000
 
ion      s     py     pz     px    dxy    dyz    dz2    dxz  x2-y2    tot
    1  0.039  0.000  0.096  0.000  0.000  0.000  0.000  0.000  0.000  0.134
    2  0.039  0.000  0.096  0.000  0.000  0.000  0.000  0.000  0.000  0.134
    3  0.039  0.000  0.096  0.000  0.000  0.000  0.000  0.000  0.000  0.134
    4  0.039  0.000  0.096  0.000  0.000  0.000  0.000  0.000  0.000  0.134
tot    0.154  0.000  0.383  0.000  0.000  0.000  0.000  0.000  0.000  0.537
 
band     4 # energy    7.57621094 # occ.  1.00000000
 
ion      s     py     pz     px    dxy    dyz    dz2    dxz  x2-y2    tot
    1  0.000  0.139  0.000  0.047  0.000  0.000  0.000  0.000  0.000  0.185
    2  0.000  0.139  0.000  0.047  0.000  0.000  0.000  0.000  0.000  0.185
    3  0.000  0.139  0.000  0.047  0.000  0.000  0.000  0.000  0.000  0.185
    4  0.000  0.139  0.000  0.047  0.000  0.000  0.000  0.000  0.000  0.185
tot    0.000  0.556  0.000  0.186  0.000  0.000  0.000  0.000  0.000  0.742
 
band     5 # energy    7.57630353 # occ.  1.00000000
 
ion      s     py     pz     px    dxy    dyz    dz2    dxz  x2-y2    tot
    1  0.000  0.047  0.000  0.139  0.000  0.000  0.000  0.000  0.000  0.185
    2  0.000  0.047  0.000  0.139  0.000  0.000  0.000  0.000  0.000  0.185
    3  0.000  0.047  0.000  0.139  0.000  0.000  0.000  0.000  0.000  0.185
    4  0.000  0.047  0.000  0.139  0.000  0.000  0.000  0.000  0.000  0.185
tot    0.000  0.186  0.000  0.556  0.000  0.000  0.000  0.000  0.000  0.742
 
band     6 # energy   10.26424108 # occ.  1.00000000
 
ion      s     py     pz     px    dxy    dyz    dz2    dxz  x2-y2    tot
    1  0.000  0.000  0.191  0.000  0.000  0.000  0.000  0.000  0.000  0.191
    2  0.000  0.000  0.191  0.000  0.000  0.000  0.000  0.000  0.000  0.191
    3  0.000  0.000  0.191  0.000  0.000  0.000  0.000  0.000  0.000  0.191
    4  0.000  0.000  0.191  0.000  0.000  0.000  0.000  0.000  0.000  0.191
tot    0.000  0.000  0.763  0.000  0.000  0.000  0.000  0.000  0.000  0.763
 
band     7 # energy   10.84003135 # occ.  1.00000000
 
ion      s     py     pz     px    dxy    dyz    dz2    dxz  x2-y2    tot
    1  0.000  0.150  0.000  0.050  0.000  0.000  0.000  0.000  0.000  0.199
    2  0.000  0.150  0.000  0.050  0.000  0.000  0.000  0.000  0.000  0.199
    3  0.000  0.150  0.000  0.050  0.000  0.000  0.000  0.000  0.000  0.199
    4  0.000  0.150  0.000  0.050  0.000  0.000  0.000  0.000  0.000  0.199
tot    0.000  0.598  0.000  0.199  0.000  0.000  0.000  0.000  0.000  0.798
 
band     8 # energy   10.84013316 # occ.  1.00000000
 
ion      s     py     pz     px    dxy    dyz    dz2    dxz  x2-y2    tot
    1  0.000  0.050  0.000  0.150  0.000  0.000  0.000  0.000  0.000  0.199
    2  0.000  0.050  0.000  0.150  0.000  0.000  0.000  0.000  0.000  0.199
    3  0.000  0.050  0.000  0.150  0.000  0.000  0.000  0.000  0.000  0.199
    4  0.000  0.050  0.000  0.150  0.000  0.000  0.000  0.000  0.000  0.199
tot    0.000  0.199  0.000  0.598  0.000  0.000  0.000  0.000  0.000  0.798
 
band     9 # energy   15.86279833 # occ.  0.00000000
 
ion      s     py     pz     px    dxy    dyz    dz2    dxz  x2-y2    tot
    1  0.000  0.034  0.000  0.108  0.000  0.000  0.000  0.000  0.000  0.142
    2  0.000  0.034  0.000  0.108  0.000  0.000  0.000  0.000  0.000  0.142
    3  0.000  0.034  0.000  0.108  0.000  0.000  0.000  0.000  0.000  0.142
    4  0.000  0.034  0.000  0.108  0.000  0.000  0.000  0.000  0.000  0.142
tot    0.000  0.137  0.000  0.432  0.000  0.000  0.000  0.000  0.000  0.569
 
band    10 # energy   15.86288224 # occ.  0.00000000
 
ion      s     py     pz     px    dxy    dyz    dz2    dxz  x2-y2    tot
    1  0.000  0.108  0.000  0.034  0.000  0.000  0.000  0.000  0.000  0.142
    2  0.000  0.108  0.000  0.034  0.000  0.000  0.000  0.000  0.000  0.142
    3  0.000  0.108  0.000  0.034  0.000  0.000  0.000  0.000  0.000  0.142
    4  0.000  0.108  0.000  0.034  0.000  0.000  0.000  0.000  0.000  0.142
tot    0.000  0.432  0.000  0.137  0.000  0.000  0.000  0.000  0.000  0.569
 
band    11 # energy   16.32831308 # occ.  0.00000000
 
ion      s     py     pz     px    dxy    dyz    dz2    dxz  x2-y2    tot
    1  0.002  0.000  0.149  0.000  0.000  0.000  0.000  0.000  0.000  0.152
    2  0.002  0.000  0.149  0.000  0.000  0.000  0.000  0.000  0.000  0.152
    3  0.002  0.000  0.149  0.000  0.000  0.000  0.000  0.000  0.000  0.152
    4  0.002  0.000  0.149  0.000  0.000  0.000  0.000  0.000  0.000  0.152
tot    0.010  0.000  0.598  0.000  0.000  0.000  0.000  0.000  0.000  0.608
 
band    12 # energy   19.55916190 # occ.  0.00000000
 
ion      s     py     pz     px    dxy    dyz    dz2    dxz  x2-y2    tot
    1  0.142  0.000  0.009  0.000  0.000  0.000  0.000  0.000  0.000  0.151
    2  0.142  0.000  0.009  0.000  0.000  0.000  0.000  0.000  0.000  0.151
    3  0.142  0.000  0.009  0.000  0.000  0.000  0.000  0.000  0.000  0.151
    4  0.142  0.000  0.009  0.000  0.000  0.000  0.000  0.000  0.000  0.151
tot    0.568  0.000  0.038  0.000  0.000  0.000  0.000  0.000  0.000  0.605
 
band    13 # energy   20.65789273 # occ.  0.00000000
 
ion      s     py     pz     px    dxy    dyz    dz2    dxz  x2-y2    tot
    1  0.000  0.038  0.000  0.119  0.000  0.000  0.000  0.000  0.000  0.157
    2  0.000  0.038  0.000  0.119  0.000  0.000  0.000  0.000  0.000  0.157
    3  0.000  0.038  0.000  0.119  0.000  0.000  0.000  0.000  0.000  0.157
    4  0.000  0.038  0.000  0.119  0.000  0.000  0.000  0.000  0.000  0.157
tot    0.000  0.152  0.000  0.476  0.000  0.000  0.000  0.000  0.000  0.629
 
band    14 # energy   20.65800893 # occ.  0.00000000
 
ion      s     py     pz     px    dxy    dyz    dz2    dxz  x2-y2    tot
    1  0.000  0.119  0.000  0.038  0.000  0.000  0.000  0.000  0.000  0.157
    2  0.000  0.119  0.000  0.038  0.000  0.000  0.000  0.000  0.000  0.157
    3  0.000  0.119  0.000  0.038  0.000  0.000  0.000  0.000  0.000  0.157
    4  0.000  0.119  0.000  0.038  0.000  0.000  0.000  0.000  0.000  0.157
tot    0.000  0.476  0.000  0.152  0.000  0.000  0.000  0.000  0.000  0.629
 
band    15 # energy   26.16571495 # occ.  0.00000000
 
ion      s     py     pz     px    dxy    dyz    dz2    dxz  x2-y2    tot
    1  0.211  0.000  0.004  0.000  0.000  0.000  0.000  0.000  0.000  0.215
    2  0.211  0.000  0.004  0.000  0.000  0.000  0.000  0.000  0.000  0.215
    3  0.211  0.000  0.004  0.000  0.000  0.000  0.000  0.000  0.000  0.215
    4  0.211  0.000  0.004  0.000  0.000  0.000  0.000  0.000  0.000  0.215
tot    0.846  0.000  0.015  0.000  0.000  0.000  0.000  0.000  0.000  0.860
 
band    16 # energy   29.34531580 # occ.  0.00000000
 
ion      s     py     pz     px    dxy    dyz    dz2    dxz  x2-y2    tot
    1  0.004  0.000  0.196  0.000  0.000  0.000  0.000  0.000  0.000  0.200
    2  0.004  0.000  0.196  0.000  0.000  0.000  0.000  0.000  0.000  0.200
    3  0.004  0.000  0.196  0.000  0.000  0.000  0.000  0.000  0.000  0.200
    4  0.004  0.000  0.196  0.000  0.000  0.000  0.000  0.000  0.000  0.200
tot    0.016  0.000  0.785  0.000  0.000  0.000  0.000  0.000  0.000  0.801
 

 k-point     2 :    0.07142857 0.00000000 0.00000000     weight = 0.00510204

band     1 # energy  -11.55691711 # occ.  1.00000000
 
ion      s     py     pz     px    dxy    dyz    dz2    dxz  x2-y2    tot
    1  0.142  0.000  0.000  0.001  0.000  0.000  0.000  0.000  0.000  0.143
    2  0.142  0.000  0.000  0.001  0.000  0.000  0.000  0.000  0.000  0.143
    3  0.142  0.000  0.000  0.001  0.000  0.000  0.000  0.000  0.000  0.143
    4  0.142  0.000  0.000  0.001  0.000  0.000  0.000  0.000  0.000  0.143
tot    0.569  0.001  0.000  0.003  0.000  0.000  0.000  0.000  0.000  0.573
 
band     2 # energy   -5.70808579 # occ.  1.00000000
 
ion      s     py     pz     px    dxy    dyz    dz2    dxz  x2-y2    tot
    1  0.150  0.000  0.016  0.001  0.000  0.000  0.000  0.000  0.000  0.167
    2  0.150  0.000  0.016  0.001  0.000  0.000  0.000  0.000  0.000  0.167
    3  0.150  0.000  0.016  0.001  0.000  0.000  0.000  0.000  0.000  0.167
    4  0.150  0.000  0.016  0.001  0.000  0.000  0.000  0.000  0.000  0.167
tot    0.599  0.001  0.065  0.004  0.000  0.000  0.000  0.000  0.000  0.669
 
band     3 # energy   -3.36642042 # occ.  1.00000000
 
ion      s     py     pz     px    dxy    dyz    dz2    dxz  x2-y2    tot
    1  0.039  0.000  0.096  0.000  0.000  0.000  0.000  0.000  0.000  0.135
    2  0.039  0.000  0.096  0.000  0.000  0.000  0.000  0.000  0.000  0.135
    3  0.039  0.000  0.096  0.000  0.000  0.000  0.000  0.000  0.000  0.135
    4  0.039  0.000  0.096  0.000  0.000  0.000  0.000  0.000  0.000  0.135
tot    0.155  0.000  0.384  0.000  0.000  0.000  0.000  0.000  0.000  0.539
 
band     4 # energy    6.91492749 # occ.  1.00000000
 
ion      s     py     pz     px    dxy    dyz    dz2    dxz  x2-y2    tot
    1  0.008  0.043  0.000  0.130  0.000  0.000  0.000  0.000  0.000  0.181
    2  0.008  0.043  0.000  0.130  0.000  0.000  0.000  0.000  0.000  0.181
    3  0.008  0.043  0.000  0.130  0.000  0.000  0.000  0.000  0.000  0.181
    4  0.008  0.043  0.000  0.130  0.000  0.000  0.000  0.000  0.000  0.181
tot    0.032  0.173  0.001  0.519  0.000  0.000  0.000  0.000  0.000  0.725
 
band     5 # energy    7.29486951 # occ.  1.00000000
 
ion      s     py     pz     px    dxy    dyz    dz2    dxz  x2-y2    tot
    1  0.000  0.137  0.000  0.046  0.000  0.000  0.000  0.000  0.000  0.183
    2  0.000  0.137  0.000  0.046  0.000  0.000  0.000  0.000  0.000  0.183
    3  0.000  0.137  0.000  0.046  0.000  0.000  0.000  0.000  0.000  0.183
    4  0.000  0.137  0.000  0.046  0.000  0.000  0.000  0.000  0.000  0.183
tot    0.000  0.550  0.000  0.183  0.000  0.000  0.000  0.000  0.000  0.733
 
band     6 # energy   10.06299850 # occ.  1.00000000
 
ion      s     py     pz     px    dxy    dyz    dz2    dxz  x2-y2    tot
    1  0.000  0.001  0.185  0.003  0.000  0.000  0.000  0.000  0.000  0.190
    2  0.000  0.001  0.185  0.003  0.000  0.000  0.000  0.000  0.000  0.190
    3  0.000  0.001  0.185  0.003  0.000  0.000  0.000  0.000  0.000  0.190
    4  0.000  0.001  0.185  0.003  0.000  0.000  0.000  0.000  0.000  0.190
tot    0.000  0.004  0.742  0.013  0.000  0.000  0.000  0.000  0.000  0.759
 
band     7 # energy   10.27286230 # occ.  1.00000000
 
ion      s     py     pz     px    dxy    dyz    dz2    dxz  x2-y2    tot
    1  0.005  0.047  0.004  0.141  0.000  0.000  0.000  0.000  0.000  0.197
    2  0.005  0.047  0.004  0.141  0.000  0.000  0.000  0.000  0.000  0.197
    3  0.005  0.047  0.004  0.141  0.000  0.000  0.000  0.000  0.000  0.197
    4  0.005  0.047  0.004  0.141  0.000  0.000  0.000  0.000  0.000  0.197
tot    0.021  0.188  0.016  0.562  0.000  0.000  0.000  0.000  0.000  0.786
 
band     8 # energy   10.58974223 # occ.  1.00000000
 
ion      s     py     pz     px    dxy    dyz    dz2    dxz  x2-y2    tot
    1  0.000  0.148  0.000  0.049  0.000  0.000  0.000  0.000  0.000  0.198
    2  0.000  0.148  0.000  0.049  0.000  0.000  0.000  0.000  0.000  0.198
    3  0.000  0.148  0.000  0.049  0.000  0.000  0.000  0.000  0.000  0.198
    4  0.000  0.148  0.000  0.049  0.000  0.000  0.000  0.000  0.000  0.198
tot    0.000  0.593  0.000  0.198  0.000  0.000  0.000  0.000  0.000  0.791
 
band     9 # energy   15.95975917 # occ.  0.00000000
 
ion      s     py     pz     px    dxy    dyz    dz2    dxz  x2-y2    tot
    1  0.005  0.033  0.005  0.098  0.000  0.000  0.000  0.000  0.000  0.141
    2  0.005  0.033  0.005  0.098  0.000  0.000  0.000  0.000  0.000  0.141
    3  0.005  0.033  0.005  0.098  0.000  0.000  0.000  0.000  0.000  0.141
    4  0.005  0.033  0.005  0.098  0.000  0.000  0.000  0.000  0.000  0.141
tot    0.021  0.131  0.020  0.392  0.000  0.000  0.000  0.000  0.000  0.563
 
band    10 # energy   16.22719390 # occ.  0.00000000
 
ion      s     py     pz     px    dxy    dyz    dz2    dxz  x2-y2    tot
    1  0.000  0.109  0.000  0.036  0.000  0.000  0.000  0.000  0.000  0.145
    2  0.000  0.109  0.000  0.036  0.000  0.000  0.000  0.000  0.000  0.145
    3  0.000  0.109  0.000  0.036  0.000  0.000  0.000  0.000  0.000  0.145
    4  0.000  0.109  0.000  0.036  0.000  0.000  0.000  0.000  0.000  0.145
tot    0.000  0.435  0.000  0.145  0.000  0.000  0.000  0.000  0.000  0.580
 
band    11 # energy   16.57212679 # occ.  0.00000000
 
ion      s     py     pz     px    dxy    dyz    dz2    dxz  x2-y2    tot
    1  0.004  0.001  0.145  0.003  0.000  0.000  0.000  0.000  0.000  0.153
    2  0.004  0.001  0.145  0.003  0.000  0.000  0.000  0.000  0.000  0.153
    3  0.004  0.001  0.145  0.003  0.000  0.000  0.000  0.000  0.000  0.153
    4  0.004  0.001  0.145  0.003  0.000  0.000  0.000  0.000  0.000  0.153
tot    0.017  0.004  0.581  0.011  0.000  0.000  0.000  0.000  0.000  0.613
 
band    12 # energy   19.96120893 # occ.  0.00000000
 
ion      s     py     pz     px    dxy    dyz    dz2    dxz  x2-y2    tot
    1  0.132  0.003  0.010  0.009  0.000  0.000  0.000  0.000  0.000  0.154
    2  0.132  0.003  0.010  0.009  0.000  0.000  0.000  0.000  0.000  0.154
    3  0.132  0.003  0.010  0.009  0.000  0.000  0.000  0.000  0.000  0.154
    4  0.132  0.003  0.010  0.009  0.000  0.000  0.000  0.000  0.000  0.154
tot    0.526  0.013  0.039  0.038  0.000  0.000  0.000  0.000  0.000  0.615
 
band    13 # energy   20.79300163 # occ.  0.00000000
 
ion      s     py     pz     px    dxy    dyz    dz2    dxz  x2-y2    tot
    1  0.003  0.038  0.001  0.114  0.000  0.000  0.000  0.000  0.000  0.156
    2  0.003  0.038  0.001  0.114  0.000  0.000  0.000  0.000  0.000  0.156
    3  0.003  0.038  0.001  0.114  0.000  0.000  0.000  0.000  0.000  0.156
    4  0.003  0.038  0.001  0.114  0.000  0.000  0.000  0.000  0.000  0.156
tot    0.014  0.152  0.003  0.456  0.000  0.000  0.000  0.000  0.000  0.625
 
band    14 # energy   21.09580640 # occ.  0.00000000
 
ion      s     py     pz     px    dxy    dyz    dz2    dxz  x2-y2    tot
    1  0.000  0.120  0.000  0.040  0.000  0.000  0.000  0.000  0.000  0.160
    2  0.000  0.120  0.000  0.040  0.000  0.000  0.000  0.000  0.000  0.160
    3  0.000  0.120  0.000  0.040  0.000  0.000  0.000  0.000  0.000  0.160
    4  0.000  0.120  0.000  0.040  0.000  0.000  0.000  0.000  0.000  0.160
tot    0.000  0.481  0.000  0.160  0.000  0.000  0.000  0.000  0.000  0.641
 
band    15 # energy   26.30542671 # occ.  0.00000000
 
ion      s     py     pz     px    dxy    dyz    dz2    dxz  x2-y2    tot
    1  0.203  0.002  0.004  0.006  0.000  0.000  0.000  0.000  0.000  0.215
    2  0.203  0.002  0.004  0.006  0.000  0.000  0.000  0.000  0.000  0.215
    3  0.203  0.002  0.004  0.006  0.000  0.000  0.000  0.000  0.000  0.215
    4  0.203  0.002  0.004  0.006  0.000  0.000  0.000  0.000  0.000  0.215
tot    0.811  0.008  0.017  0.025  0.000  0.000  0.000  0.000  0.000  0.860
 
band    16 # energy   29.18299756 # occ.  0.00000000
 
ion      s     py     pz     px    dxy    dyz    dz2    dxz  x2-y2    tot
    1  0.005  0.001  0.193  0.002  0.000  0.000  0.000  0.000  0.000  0.201
    2  0.005  0.001  0.193  0.002  0.000  0.000  0.000  0.000  0.000  0.201
    3  0.005  0.001  0.193  0.002  0.000  0.000  0.000  0.000  0.000  0.201
    4  0.005  0.001  0.193  0.002  0.000  0.000  0.000  0.000  0.000  0.201
tot    0.020  0.002  0.773  0.007  0.000  0.000  0.000  0.000  0.000  0.803
 

 k-point     3 :    0.14285714 0.00000000 0.00000000     weight = 0.00510204

band     1 # energy  -11.16417534 # occ.  1.00000000
 
ion      s     py     pz     px    dxy    dyz    dz2    dxz  x2-y2    tot
    1  0.140  0.001  0.000  0.003  0.000  0.000  0.000  0.000  0.000  0.144
    2  0.140  0.001  0.000  0.003  0.000  0.000  0.000  0.000  0.000  0.144
    3  0.140  0.001  0.000  0.003  0.000  0.000  0.000  0.000  0.000  0.144
    4  0.140  0.001  0.000  0.003  0.000  0.000  0.000  0.000  0.000  0.144
tot    0.561  0.004  0.000  0.011  0.000  0.000  0.000  0.000  0.000  0.576
 
band     2 # energy   -5.35625213 # occ.  1.00000000
 
ion      s     py     pz     px    dxy    dyz    dz2    dxz  x2-y2    tot
    1  0.147  0.001  0.016  0.004  0.000  0.000  0.000  0.000  0.000  0.168
    2  0.147  0.001  0.016  0.004  0.000  0.000  0.000  0.000  0.000  0.168
    3  0.147  0.001  0.016  0.004  0.000  0.000  0.000  0.000  0.000  0.168
    4  0.147  0.001  0.016  0.004  0.000  0.000  0.000  0.000  0.000  0.168
tot    0.586  0.005  0.065  0.016  0.000  0.000  0.000  0.000  0.000  0.672
 
band     3 # energy   -2.99911884 # occ.  1.00000000
 
ion      s     py     pz     px    dxy    dyz    dz2    dxz  x2-y2    tot
    1  0.040  0.000  0.096  0.000  0.000  0.000  0.000  0.000  0.000  0.136
    2  0.040  0.000  0.096  0.000  0.000  0.000  0.000  0.000  0.000  0.136
    3  0.040  0.000  0.096  0.000  0.000  0.000  0.000  0.000  0.000  0.136
    4  0.040  0.000  0.096  0.000  0.000  0.000  0.000  0.000  0.000  0.136
tot    0.159  0.000  0.386  0.001  0.000  0.000  0.000  0.000  0.000  0.546
 
band     4 # energy    5.27880275 # occ.  1.00000000
 
ion      s     py     pz     px    dxy    dyz    dz2    dxz  x2-y2    tot
    1  0.023  0.037  0.001  0.112  0.000  0.000  0.000  0.000  0.000  0.173
    2  0.023  0.037  0.001  0.112  0.000  0.000  0.000  0.000  0.000  0.173
    3  0.023  0.037  0.001  0.112  0.000  0.000  0.000  0.000  0.000  0.173
    4  0.023  0.037  0.001  0.112  0.000  0.000  0.000  0.000  0.000  0.173
tot    0.092  0.149  0.005  0.446  0.000  0.000  0.000  0.000  0.000  0.692
 
band     5 # energy    6.61311638 # occ.  1.00000000
 
ion      s     py     pz     px    dxy    dyz    dz2    dxz  x2-y2    tot
    1  0.000  0.134  0.000  0.045  0.000  0.000  0.000  0.000  0.000  0.179
    2  0.000  0.134  0.000  0.045  0.000  0.000  0.000  0.000  0.000  0.179
    3  0.000  0.134  0.000  0.045  0.000  0.000  0.000  0.000  0.000  0.179
    4  0.000  0.134  0.000  0.045  0.000  0.000  0.000  0.000  0.000  0.179
tot    0.000  0.537  0.000  0.179  0.000  0.000  0.000  0.000  0.000  0.716
 
band     6 # energy    8.87507838 # occ.  1.00000000
 
ion      s     py     pz     px    dxy    dyz    dz2    dxz  x2-y2    tot
    1  0.017  0.041  0.009  0.124  0.000  0.000  0.000  0.000  0.000  0.191
    2  0.017  0.041  0.009  0.124  0.000  0.000  0.000  0.000  0.000  0.191
    3  0.017  0.041  0.009  0.124  0.000  0.000  0.000  0.000  0.000  0.191
    4  0.017  0.041  0.009  0.124  0.000  0.000  0.000  0.000  0.000  0.191
tot    0.067  0.165  0.037  0.495  0.000  0.000  0.000  0.000  0.000  0.763
 
band     7 # energy    9.50531274 # occ.  1.00000000
 
ion      s     py     pz     px    dxy    dyz    dz2    dxz  x2-y2    tot
    1  0.001  0.003  0.173  0.009  0.000  0.000  0.000  0.000  0.000  0.187
    2  0.001  0.003  0.173  0.009  0.000  0.000  0.000  0.000  0.000  0.187
    3  0.001  0.003  0.173  0.009  0.000  0.000  0.000  0.000  0.000  0.187
    4  0.001  0.003  0.173  0.009  0.000  0.000  0.000  0.000  0.000  0.187
tot    0.003  0.013  0.693  0.038  0.000  0.000  0.000  0.000  0.000  0.747
 
band     8 # energy    9.96982499 # occ.  1.00000000
 
ion      s     py     pz     px    dxy    dyz    dz2    dxz  x2-y2    tot
    1  0.000  0.146  0.000  0.049  0.000  0.000  0.000  0.000  0.000  0.194
    2  0.000  0.146  0.000  0.049  0.000  0.000  0.000  0.000  0.000  0.194
    3  0.000  0.146  0.000  0.049  0.000  0.000  0.000  0.000  0.000  0.194
    4  0.000  0.146  0.000  0.049  0.000  0.000  0.000  0.000  0.000  0.194
tot    0.000  0.583  0.000  0.194  0.000  0.000  0.000  0.000  0.000  0.777
 
band     9 # energy   16.03182158 # occ.  0.00000000
 
ion      s     py     pz     px    dxy    dyz    dz2    dxz  x2-y2    tot
    1  0.021  0.025  0.015  0.074  0.000  0.000  0.000  0.000  0.000  0.134
    2  0.021  0.025  0.015  0.074  0.000  0.000  0.000  0.000  0.000  0.134
    3  0.021  0.025  0.015  0.074  0.000  0.000  0.000  0.000  0.000  0.134
    4  0.021  0.025  0.015  0.074  0.000  0.000  0.000  0.000  0.000  0.134
tot    0.085  0.098  0.059  0.295  0.000  0.000  0.000  0.000  0.000  0.537
 
band    10 # energy   17.09741808 # occ.  0.00000000
 
ion      s     py     pz     px    dxy    dyz    dz2    dxz  x2-y2    tot
    1  0.000  0.113  0.000  0.038  0.000  0.000  0.000  0.000  0.000  0.150
    2  0.000  0.113  0.000  0.038  0.000  0.000  0.000  0.000  0.000  0.150
    3  0.000  0.113  0.000  0.038  0.000  0.000  0.000  0.000  0.000  0.150
    4  0.000  0.113  0.000  0.038  0.000  0.000  0.000  0.000  0.000  0.150
tot    0.000  0.451  0.000  0.150  0.000  0.000  0.000  0.000  0.000  0.601
 
band    11 # energy   17.10431041 # occ.  0.00000000
 
ion      s     py     pz     px    dxy    dyz    dz2    dxz  x2-y2    tot
    1  0.007  0.002  0.139  0.006  0.000  0.000  0.000  0.000  0.000  0.154
    2  0.007  0.002  0.139  0.006  0.000  0.000  0.000  0.000  0.000  0.154
    3  0.007  0.002  0.139  0.006  0.000  0.000  0.000  0.000  0.000  0.154
    4  0.007  0.002  0.139  0.006  0.000  0.000  0.000  0.000  0.000  0.154
tot    0.029  0.008  0.557  0.023  0.000  0.000  0.000  0.000  0.000  0.617
 
band    12 # energy   20.95138307 # occ.  0.00000000
 
ion      s     py     pz     px    dxy    dyz    dz2    dxz  x2-y2    tot
    1  0.103  0.010  0.013  0.031  0.000  0.000  0.000  0.000  0.000  0.158
    2  0.103  0.010  0.013  0.031  0.000  0.000  0.000  0.000  0.000  0.158
    3  0.103  0.010  0.013  0.031  0.000  0.000  0.000  0.000  0.000  0.158
    4  0.103  0.010  0.013  0.031  0.000  0.000  0.000  0.000  0.000  0.158
tot    0.413  0.042  0.051  0.126  0.000  0.000  0.000  0.000  0.000  0.632
 
band    13 # energy   21.07639628 # occ.  0.00000000
 
ion      s     py     pz     px    dxy    dyz    dz2    dxz  x2-y2    tot
    1  0.019  0.033  0.003  0.099  0.000  0.000  0.000  0.000  0.000  0.154
    2  0.019  0.033  0.003  0.099  0.000  0.000  0.000  0.000  0.000  0.154
    3  0.019  0.033  0.003  0.099  0.000  0.000  0.000  0.000  0.000  0.154
    4  0.019  0.033  0.003  0.099  0.000  0.000  0.000  0.000  0.000  0.154
tot    0.078  0.131  0.012  0.394  0.000  0.000  0.000  0.000  0.000  0.615
 
band    14 # energy   22.23663339 # occ.  0.00000000
 
ion      s     py     pz     px    dxy    dyz    dz2    dxz  x2-y2    tot
    1  0.000  0.126  0.000  0.042  0.000  0.000  0.000  0.000  0.000  0.168
    2  0.000  0.126  0.000  0.042  0.000  0.000  0.000  0.000  0.000  0.168
    3  0.000  0.126  0.000  0.042  0.000  0.000  0.000  0.000  0.000  0.168
    4  0.000  0.126  0.000  0.042  0.000  0.000  0.000  0.000  0.000  0.168
tot    0.000  0.504  0.000  0.168  0.000  0.000  0.000  0.000  0.000  0.672
 
band    15 # energy   26.71307078 # occ.  0.00000000
 
ion      s     py     pz     px    dxy    dyz    dz2    dxz  x2-y2    tot
    1  0.177  0.009  0.006  0.026  0.000  0.000  0.000  0.000  0.000  0.217
    2  0.177  0.009  0.006  0.026  0.000  0.000  0.000  0.000  0.000  0.217
    3  0.177  0.009  0.006  0.026  0.000  0.000  0.000  0.000  0.000  0.217
    4  0.177  0.009  0.006  0.026  0.000  0.000  0.000  0.000  0.000  0.217
tot    0.706  0.034  0.023  0.103  0.000  0.000  0.000  0.000  0.000  0.867
 
band    16 # energy   26.76079721 # occ.  0.00000000
 
ion      s     py     pz     px    dxy    dyz    dz2    dxz  x2-y2    tot
    1  0.002  0.002  0.009  0.007  0.000  0.000  0.000  0.000  0.000  0.021
    2  0.002  0.002  0.009  0.007  0.000  0.000  0.000  0.000  0.000  0.021
    3  0.002  0.002  0.009  0.007  0.000  0.000  0.000  0.000  0.000  0.021
    4  0.002  0.002  0.009  0.007  0.000  0.000  0.000  0.000  0.000  0.021
tot    0.009  0.009  0.037  0.028  0.000  0.000  0.000  0.000  0.000  0.084
 

 k-point     4 :    0.21428571 0.00000000 0.00000000     weight = 0.00510204

band     1 # energy  -10.51331506 # occ.  1.00000000
 
ion      s     py     pz     px    dxy    dyz    dz2    dxz  x2-y2    tot
    1  0.137  0.002  0.000  0.006  0.000  0.000  0.000  0.000  0.000  0.145
    2  0.137  0.002  0.000  0.006  0.000  0.000  0.000  0.000  0.000  0.145
    3  0.137  0.002  0.000  0.006  0.000  0.000  0.000  0.000  0.000  0.145
    4  0.137  0.002  0.000  0.006  0.000  0.000  0.000  0.000  0.000  0.145
tot    0.549  0.008  0.000  0.024  0.000  0.000  0.000  0.000  0.000  0.581
 
band     2 # energy   -4.77257008 # occ.  1.00000000
 
ion      s     py     pz     px    dxy    dyz    dz2    dxz  x2-y2    tot
    1  0.141  0.003  0.016  0.009  0.000  0.000  0.000  0.000  0.000  0.169
    2  0.141  0.003  0.016  0.009  0.000  0.000  0.000  0.000  0.000  0.169
    3  0.141  0.003  0.016  0.009  0.000  0.000  0.000  0.000  0.000  0.169
    4  0.141  0.003  0.016  0.009  0.000  0.000  0.000  0.000  0.000  0.169
tot    0.565  0.012  0.065  0.035  0.000  0.000  0.000  0.000  0.000  0.676
 
band     3 # energy   -2.41016066 # occ.  1.00000000
 
ion      s     py     pz     px    dxy    dyz    dz2    dxz  x2-y2    tot
    1  0.043  0.000  0.097  0.000  0.000  0.000  0.000  0.000  0.000  0.140
    2  0.043  0.000  0.097  0.000  0.000  0.000  0.000  0.000  0.000  0.140
    3  0.043  0.000  0.097  0.000  0.000  0.000  0.000  0.000  0.000  0.140
    4  0.043  0.000  0.097  0.000  0.000  0.000  0.000  0.000  0.000  0.140
tot    0.171  0.000  0.387  0.001  0.000  0.000  0.000  0.000  0.000  0.559
 
band     4 # energy    3.21912060 # occ.  1.00000000
 
ion      s     py     pz     px    dxy    dyz    dz2    dxz  x2-y2    tot
    1  0.035  0.032  0.003  0.095  0.000  0.000  0.000  0.000  0.000  0.164
    2  0.035  0.032  0.003  0.095  0.000  0.000  0.000  0.000  0.000  0.164
    3  0.035  0.032  0.003  0.095  0.000  0.000  0.000  0.000  0.000  0.164
    4  0.035  0.032  0.003  0.095  0.000  0.000  0.000  0.000  0.000  0.164
tot    0.141  0.126  0.012  0.379  0.000  0.000  0.000  0.000  0.000  0.658
 
band     5 # energy    5.81213133 # occ.  1.00000000
 
ion      s     py     pz     px    dxy    dyz    dz2    dxz  x2-y2    tot
    1  0.000  0.131  0.000  0.044  0.000  0.000  0.000  0.000  0.000  0.175
    2  0.000  0.131  0.000  0.044  0.000  0.000  0.000  0.000  0.000  0.175
    3  0.000  0.131  0.000  0.044  0.000  0.000  0.000  0.000  0.000  0.175
    4  0.000  0.131  0.000  0.044  0.000  0.000  0.000  0.000  0.000  0.175
tot    0.000  0.526  0.000  0.175  0.000  0.000  0.000  0.000  0.000  0.701
 
band     6 # energy    7.10442281 # occ.  1.00000000
 
ion      s     py     pz     px    dxy    dyz    dz2    dxz  x2-y2    tot
    1  0.032  0.036  0.012  0.107  0.000  0.000  0.000  0.000  0.000  0.186
    2  0.032  0.036  0.012  0.107  0.000  0.000  0.000  0.000  0.000  0.186
    3  0.032  0.036  0.012  0.107  0.000  0.000  0.000  0.000  0.000  0.186
    4  0.032  0.036  0.012  0.107  0.000  0.000  0.000  0.000  0.000  0.186
tot    0.127  0.143  0.047  0.429  0.000  0.000  0.000  0.000  0.000  0.745
 
band     7 # energy    8.64360525 # occ.  1.00000000
 
ion      s     py     pz     px    dxy    dyz    dz2    dxz  x2-y2    tot
    1  0.003  0.005  0.159  0.014  0.000  0.000  0.000  0.000  0.000  0.182
    2  0.003  0.005  0.159  0.014  0.000  0.000  0.000  0.000  0.000  0.182
    3  0.003  0.005  0.159  0.014  0.000  0.000  0.000  0.000  0.000  0.182
    4  0.003  0.005  0.159  0.014  0.000  0.000  0.000  0.000  0.000  0.182
tot    0.012  0.019  0.638  0.058  0.000  0.000  0.000  0.000  0.000  0.726
 
band     8 # energy    9.22745964 # occ.  1.00000000
 
ion      s     py     pz     px    dxy    dyz    dz2    dxz  x2-y2    tot
    1  0.000  0.144  0.000  0.048  0.000  0.000  0.000  0.000  0.000  0.191
    2  0.000  0.144  0.000  0.048  0.000  0.000  0.000  0.000  0.000  0.191
    3  0.000  0.144  0.000  0.048  0.000  0.000  0.000  0.000  0.000  0.191
    4  0.000  0.144  0.000  0.048  0.000  0.000  0.000  0.000  0.000  0.191
tot    0.000  0.574  0.000  0.191  0.000  0.000  0.000  0.000  0.000  0.766
 
band     9 # energy   15.95414195 # occ.  0.00000000
 
ion      s     py     pz     px    dxy    dyz    dz2    dxz  x2-y2    tot
    1  0.038  0.016  0.022  0.048  0.000  0.000  0.000  0.000  0.000  0.125
    2  0.038  0.016  0.022  0.048  0.000  0.000  0.000  0.000  0.000  0.125
    3  0.038  0.016  0.022  0.048  0.000  0.000  0.000  0.000  0.000  0.125
    4  0.038  0.016  0.022  0.048  0.000  0.000  0.000  0.000  0.000  0.125
tot    0.154  0.064  0.089  0.192  0.000  0.000  0.000  0.000  0.000  0.499
 
band    10 # energy   17.70410490 # occ.  0.00000000
 
ion      s     py     pz     px    dxy    dyz    dz2    dxz  x2-y2    tot
    1  0.008  0.003  0.134  0.008  0.000  0.000  0.000  0.000  0.000  0.153
    2  0.008  0.003  0.134  0.008  0.000  0.000  0.000  0.000  0.000  0.153
    3  0.008  0.003  0.134  0.008  0.000  0.000  0.000  0.000  0.000  0.153
    4  0.008  0.003  0.134  0.008  0.000  0.000  0.000  0.000  0.000  0.153