unknown system                          
            1
     2.513094    0.000000    0.000000
    -1.256547    2.176403    0.000000
     0.000000    0.000000    4.181402
   C 
   4
Direct configuration=     1
   0.33333300  0.66666700  0.93722800
   0.66666700  0.33333300  0.43722800
   0.66666700  0.33333300  0.06277200
   0.33333300  0.66666700  0.56277200
unknown system                          
            1
     2.509295    0.000000   -0.000000
    -1.254647    2.173113    0.000000
    -0.000000    0.000000    4.175133
   C 
   4
Direct configuration=     2
   0.33333300  0.66666700  0.93722985
   0.66666700  0.33333300  0.43722985
   0.66666700  0.33333300  0.06277015
   0.33333300  0.66666700  0.56277015
unknown system                          
            1
     2.497898    0.000000   -0.000000
    -1.248949    2.163243    0.000000
    -0.000000    0.000000    4.156326
   C 
   4
Direct configuration=     3
   0.33333300  0.66666700  0.93723543
   0.66666700  0.33333300  0.43723543
   0.66666700  0.33333300  0.06276457
   0.33333300  0.66666700  0.56276457
unknown system                          
            1
     2.475104    0.000000   -0.000000
    -1.237552    2.143503    0.000000
    -0.000000    0.000000    4.118713
   C 
   4
Direct configuration=     4
   0.33333300  0.66666700  0.93724662
   0.66666700  0.33333300  0.43724662
   0.66666700  0.33333300  0.06275338
   0.33333300  0.66666700  0.56275338
unknown system                          
            1
     2.465041    0.000000   -0.000000
    -1.232520    2.134788    0.000000
    -0.000000    0.000000    4.102108
   C 
   4
Direct configuration=     5
   0.33333300  0.66666700  0.93725160
   0.66666700  0.33333300  0.43725160
   0.66666700  0.33333300  0.06274840
   0.33333300  0.66666700  0.56274840
unknown system                          
            1
     2.464945    0.000000   -0.000000
    -1.232473    2.134705    0.000000
    -0.000000   -0.000000    4.102316
   C 
   4
Direct configuration=     6
   0.33333300  0.66666700  0.93716699
   0.66666700  0.33333300  0.43716699
   0.66666700  0.33333300  0.06283301
   0.33333300  0.66666700  0.56283301
unknown system                          
            1
     2.464779    0.000000    0.000000
    -1.232389    2.134561   -0.000000
     0.000000   -0.000000    4.102676
   C 
   4
Direct configuration=     7
   0.33333300  0.66666700  0.93702025
   0.66666700  0.33333300  0.43702025
   0.66666700  0.33333300  0.06297975
   0.33333300  0.66666700  0.56297975
