   4   4   1   0
  0.1028436E+02  0.2467291E-09  0.2467292E-09  0.7803073E-09  0.1500000E-16
   1.0000000000000000E-004
  CAR 
 unknown system                          
     29.81988075    -15.00171141  301      7.96198163      1.00000000
    -15.002  0.0000E+00  0.0000E+00  0.0000E+00  0.0000E+00
    -14.852  0.0000E+00  0.0000E+00  0.0000E+00  0.0000E+00
    -14.703  0.0000E+00  0.0000E+00  0.0000E+00  0.0000E+00
    -14.553  0.0000E+00  0.0000E+00  0.0000E+00  0.0000E+00
    -14.404  0.0000E+00  0.0000E+00  0.0000E+00  0.0000E+00
    -14.255  0.0000E+00  0.0000E+00  0.0000E+00  0.0000E+00
    -14.105  0.0000E+00  0.0000E+00  0.0000E+00  0.0000E+00
    -13.956  0.0000E+00  0.0000E+00  0.0000E+00  0.0000E+00
    -13.806  0.0000E+00  0.0000E+00  0.0000E+00  0.0000E+00
    -13.657  0.0000E+00  0.0000E+00  0.0000E+00  0.0000E+00
    -13.508  0.0000E+00  0.0000E+00  0.0000E+00  0.0000E+00
    -13.358  0.0000E+00  0.0000E+00  0.0000E+00  0.0000E+00
    -13.209  0.0000E+00  0.0000E+00  0.0000E+00  0.0000E+00
    -13.059  0.0000E+00  0.0000E+00  0.0000E+00  0.0000E+00
    -12.910  0.1043E-03  0.1042E-03  0.1889E-05  0.1887E-05
    -12.761  0.6206E-03  0.6206E-03  0.5742E-04  0.5742E-04
    -12.611  0.8683E-03  0.8683E-03  0.1725E-03  0.1725E-03
    -12.462  0.1047E-02  0.1047E-02  0.3152E-03  0.3152E-03
    -12.312  0.1255E-02  0.1255E-02  0.4881E-03  0.4881E-03
    -12.163  0.1426E-02  0.1426E-02  0.6882E-03  0.6882E-03
    -12.014  0.1601E-02  0.1601E-02  0.9139E-03  0.9139E-03
    -11.864  0.1755E-02  0.1755E-02  0.1165E-02  0.1165E-02
    -11.715  0.1902E-02  0.1902E-02  0.1438E-02  0.1438E-02
    -11.565  0.2070E-02  0.2070E-02  0.1735E-02  0.1734E-02
    -11.416  0.2311E-02  0.2311E-02  0.2059E-02  0.2059E-02
    -11.267  0.2611E-02  0.2611E-02  0.2426E-02  0.2426E-02
    -11.117  0.2919E-02  0.2919E-02  0.2840E-02  0.2840E-02
    -10.968  0.2942E-02  0.2942E-02  0.3278E-02  0.3278E-02
    -10.818  0.2949E-02  0.2949E-02  0.3717E-02  0.3717E-02
    -10.669  0.2947E-02  0.2947E-02  0.4158E-02  0.4158E-02
    -10.520  0.2951E-02  0.2951E-02  0.4598E-02  0.4598E-02
    -10.370  0.2958E-02  0.2958E-02  0.5040E-02  0.5040E-02
    -10.221  0.2956E-02  0.2956E-02  0.5482E-02  0.5482E-02
    -10.071  0.2978E-02  0.2978E-02  0.5925E-02  0.5925E-02
     -9.922  0.2985E-02  0.2985E-02  0.6370E-02  0.6370E-02
     -9.773  0.2978E-02  0.2978E-02  0.6816E-02  0.6816E-02
     -9.623  0.2983E-02  0.2983E-02  0.7261E-02  0.7261E-02
     -9.474  0.2997E-02  0.2997E-02  0.7708E-02  0.7708E-02
     -9.324  0.3010E-02  0.3010E-02  0.8156E-02  0.8156E-02
     -9.175  0.3017E-02  0.3017E-02  0.8607E-02  0.8607E-02
     -9.025  0.3019E-02  0.3019E-02  0.9058E-02  0.9058E-02
     -8.876  0.3029E-02  0.3029E-02  0.9509E-02  0.9509E-02
     -8.727  0.3042E-02  0.3042E-02  0.9963E-02  0.9963E-02
     -8.577  0.3051E-02  0.3051E-02  0.1042E-01  0.1042E-01
     -8.428  0.3059E-02  0.3059E-02  0.1087E-01  0.1087E-01
     -8.278  0.3077E-02  0.3077E-02  0.1133E-01  0.1133E-01
     -8.129  0.3095E-02  0.3095E-02  0.1179E-01  0.1179E-01
     -7.980  0.3112E-02  0.3112E-02  0.1226E-01  0.1226E-01
     -7.830  0.3134E-02  0.3134E-02  0.1272E-01  0.1272E-01
     -7.681  0.3164E-02  0.3164E-02  0.1319E-01  0.1319E-01
     -7.531  0.3216E-02  0.3216E-02  0.1367E-01  0.1367E-01
     -7.382  0.3283E-02  0.3283E-02  0.1416E-01  0.1416E-01
     -7.233  0.3606E-02  0.3606E-02  0.1467E-01  0.1467E-01
     -7.083  0.3582E-02  0.3582E-02  0.1521E-01  0.1521E-01
     -6.934  0.3563E-02  0.3563E-02  0.1574E-01  0.1574E-01
     -6.784  0.3697E-02  0.3697E-02  0.1629E-01  0.1629E-01
     -6.635  0.3500E-02  0.3500E-02  0.1682E-01  0.1682E-01
     -6.486  0.3670E-02  0.3670E-02  0.1736E-01  0.1736E-01
     -6.336  0.3984E-02  0.3984E-02  0.1791E-01  0.1791E-01
     -6.187  0.2206E-02  0.2206E-02  0.1838E-01  0.1838E-01
     -6.037  0.2206E-02  0.2206E-02  0.1872E-01  0.1872E-01
     -5.888  0.2108E-02  0.2108E-02  0.1903E-01  0.1903E-01
     -5.739  0.1591E-02  0.1591E-02  0.1932E-01  0.1932E-01
     -5.589  0.1737E-02  0.1735E-02  0.1953E-01  0.1953E-01
     -5.440  0.2370E-02  0.2370E-02  0.1988E-01  0.1988E-01
     -5.290  0.2544E-02  0.2544E-02  0.2025E-01  0.2025E-01
     -5.141  0.3101E-02  0.3101E-02  0.2069E-01  0.2069E-01
     -4.992  0.3046E-02  0.3046E-02  0.2115E-01  0.2115E-01
     -4.842  0.3031E-02  0.3031E-02  0.2161E-01  0.2161E-01
     -4.693  0.3583E-02  0.3583E-02  0.2208E-01  0.2208E-01
     -4.543  0.4783E-02  0.4784E-02  0.2273E-01  0.2273E-01
     -4.394  0.4032E-02  0.4032E-02  0.2336E-01  0.2336E-01
     -4.245  0.3679E-02  0.3679E-02  0.2393E-01  0.2393E-01
     -4.095  0.3744E-02  0.3744E-02  0.2448E-01  0.2448E-01
     -3.946  0.3759E-02  0.3759E-02  0.2506E-01  0.2506E-01
     -3.796  0.3170E-02  0.3170E-02  0.2555E-01  0.2555E-01
     -3.647  0.3063E-02  0.3063E-02  0.2602E-01  0.2602E-01
     -3.498  0.2972E-02  0.2972E-02  0.2647E-01  0.2647E-01
     -3.348  0.2862E-02  0.2862E-02  0.2690E-01  0.2690E-01
     -3.199  0.2785E-02  0.2785E-02  0.2732E-01  0.2732E-01
     -3.049  0.2682E-02  0.2682E-02  0.2773E-01  0.2773E-01
     -2.900  0.2840E-02  0.2840E-02  0.2814E-01  0.2814E-01
     -2.750  0.3517E-02  0.3517E-02  0.2861E-01  0.2861E-01
     -2.601  0.3410E-02  0.3410E-02  0.2914E-01  0.2914E-01
     -2.452  0.3521E-02  0.3521E-02  0.2966E-01  0.2966E-01
     -2.302  0.3707E-02  0.3707E-02  0.3020E-01  0.3020E-01
     -2.153  0.3888E-02  0.3887E-02  0.3076E-01  0.3076E-01
     -2.003  0.4038E-02  0.4038E-02  0.3136E-01  0.3136E-01
     -1.854  0.4163E-02  0.4163E-02  0.3197E-01  0.3197E-01
     -1.705  0.4222E-02  0.4222E-02  0.3260E-01  0.3260E-01
     -1.555  0.4291E-02  0.4291E-02  0.3323E-01  0.3323E-01
     -1.406  0.4392E-02  0.4392E-02  0.3388E-01  0.3388E-01
     -1.256  0.4494E-02  0.4494E-02  0.3455E-01  0.3455E-01
     -1.107  0.4604E-02  0.4604E-02  0.3522E-01  0.3522E-01
     -0.958  0.4756E-02  0.4756E-02  0.3592E-01  0.3592E-01
     -0.808  0.4927E-02  0.4927E-02  0.3665E-01  0.3665E-01
     -0.659  0.5253E-02  0.5253E-02  0.3741E-01  0.3740E-01
     -0.509  0.5343E-02  0.5343E-02  0.3820E-01  0.3820E-01
     -0.360  0.5345E-02  0.5345E-02  0.3900E-01  0.3900E-01
     -0.211  0.5346E-02  0.5346E-02  0.3980E-01  0.3980E-01
     -0.061  0.5221E-02  0.5221E-02  0.4059E-01  0.4059E-01
      0.088  0.4958E-02  0.4958E-02  0.4135E-01  0.4135E-01
      0.238  0.4816E-02  0.4816E-02  0.4208E-01  0.4208E-01
      0.387  0.5371E-02  0.5371E-02  0.4283E-01  0.4283E-01
      0.536  0.6536E-02  0.6536E-02  0.4371E-01  0.4371E-01
      0.686  0.6730E-02  0.6730E-02  0.4470E-01  0.4470E-01
      0.835  0.6748E-02  0.6748E-02  0.4569E-01  0.4569E-01
      0.985  0.6931E-02  0.6931E-02  0.4673E-01  0.4673E-01
      1.134  0.7541E-02  0.7541E-02  0.4778E-01  0.4778E-01
      1.283  0.8358E-02  0.8358E-02  0.4898E-01  0.4898E-01
      1.433  0.8366E-02  0.8366E-02  0.5025E-01  0.5025E-01
      1.582  0.8497E-02  0.8497E-02  0.5150E-01  0.5150E-01
      1.732  0.8320E-02  0.8320E-02  0.5276E-01  0.5276E-01
      1.881  0.7248E-02  0.7248E-02  0.5394E-01  0.5394E-01
      2.030  0.7129E-02  0.7129E-02  0.5501E-01  0.5501E-01
      2.180  0.6281E-02  0.6281E-02  0.5598E-01  0.5598E-01
      2.329  0.6050E-02  0.6050E-02  0.5690E-01  0.5690E-01
      2.479  0.5677E-02  0.5677E-02  0.5778E-01  0.5778E-01
      2.628  0.5907E-02  0.5907E-02  0.5864E-01  0.5864E-01
      2.778  0.6025E-02  0.6025E-02  0.5952E-01  0.5952E-01
      2.927  0.5915E-02  0.5915E-02  0.6044E-01  0.6044E-01
      3.076  0.5722E-02  0.5722E-02  0.6131E-01  0.6131E-01
      3.226  0.5716E-02  0.5716E-02  0.6215E-01  0.6215E-01
      3.375  0.5857E-02  0.5857E-02  0.6302E-01  0.6302E-01
      3.525  0.5742E-02  0.5742E-02  0.6387E-01  0.6387E-01
      3.674  0.6008E-02  0.6008E-02  0.6476E-01  0.6476E-01
      3.823  0.5921E-02  0.5921E-02  0.6565E-01  0.6565E-01
      3.973  0.5683E-02  0.5683E-02  0.6652E-01  0.6652E-01
      4.122  0.5653E-02  0.5653E-02  0.6736E-01  0.6736E-01
      4.272  0.5999E-02  0.5999E-02  0.6823E-01  0.6823E-01
      4.421  0.5921E-02  0.5921E-02  0.6913E-01  0.6913E-01
      4.570  0.5502E-02  0.5502E-02  0.6998E-01  0.6998E-01
      4.720  0.5205E-02  0.5205E-02  0.7078E-01  0.7078E-01
      4.869  0.5118E-02  0.5118E-02  0.7155E-01  0.7155E-01
      5.019  0.4931E-02  0.4931E-02  0.7231E-01  0.7231E-01
      5.168  0.4083E-02  0.4083E-02  0.7298E-01  0.7298E-01
      5.317  0.2905E-02  0.2905E-02  0.7349E-01  0.7349E-01
      5.467  0.2905E-02  0.2905E-02  0.7393E-01  0.7393E-01
      5.616  0.2943E-02  0.2943E-02  0.7436E-01  0.7436E-01
      5.766  0.3069E-02  0.3069E-02  0.7482E-01  0.7482E-01
      5.915  0.3307E-02  0.3307E-02  0.7529E-01  0.7529E-01
      6.064  0.4052E-02  0.4052E-02  0.7584E-01  0.7584E-01
      6.214  0.4045E-02  0.4045E-02  0.7646E-01  0.7646E-01
      6.363  0.3815E-02  0.3815E-02  0.7705E-01  0.7705E-01
      6.513  0.3590E-02  0.3590E-02  0.7760E-01  0.7760E-01
      6.662  0.2873E-02  0.2873E-02  0.7810E-01  0.7810E-01
      6.811  0.2201E-02  0.2201E-02  0.7848E-01  0.7848E-01
      6.961  0.1910E-02  0.1910E-02  0.7878E-01  0.7878E-01
      7.110  0.1690E-02  0.1690E-02  0.7905E-01  0.7905E-01
      7.260  0.1488E-02  0.1488E-02  0.7929E-01  0.7929E-01
      7.409  0.1308E-02  0.1308E-02  0.7949E-01  0.7949E-01
      7.558  0.1423E-02  0.1423E-02  0.7969E-01  0.7969E-01
      7.708  0.9422E-03  0.9423E-03  0.7989E-01  0.7989E-01
      7.857  0.3237E-03  0.3237E-03  0.7998E-01  0.7998E-01
      8.007  0.8815E-04  0.8815E-04  0.8000E-01  0.8000E-01
      8.156  0.1361E-03  0.1361E-03  0.8002E-01  0.8002E-01
      8.306  0.2392E-03  0.2391E-03  0.8005E-01  0.8005E-01
      8.455  0.3442E-03  0.3442E-03  0.8009E-01  0.8009E-01
      8.604  0.5953E-03  0.5953E-03  0.8016E-01  0.8016E-01
      8.754  0.6015E-03  0.6015E-03  0.8024E-01  0.8024E-01
      8.903  0.6994E-03  0.6994E-03  0.8034E-01  0.8034E-01
      9.053  0.7980E-03  0.7980E-03  0.8045E-01  0.8045E-01
      9.202  0.8918E-03  0.8918E-03  0.8058E-01  0.8058E-01
      9.351  0.1003E-02  0.1003E-02  0.8072E-01  0.8072E-01
      9.501  0.1326E-02  0.1326E-02  0.8089E-01  0.8089E-01
      9.650  0.1697E-02  0.1697E-02  0.8112E-01  0.8112E-01
      9.800  0.2396E-02  0.2396E-02  0.8140E-01  0.8140E-01
      9.949  0.3898E-02  0.3898E-02  0.8184E-01  0.8184E-01
     10.098  0.4783E-02  0.4783E-02  0.8255E-01  0.8255E-01
     10.248  0.4441E-02  0.4441E-02  0.8324E-01  0.8324E-01
     10.397  0.4357E-02  0.4357E-02  0.8390E-01  0.8390E-01
     10.547  0.3725E-02  0.3725E-02  0.8450E-01  0.8450E-01
     10.696  0.3285E-02  0.3285E-02  0.8502E-01  0.8502E-01
     10.845  0.3124E-02  0.3124E-02  0.8549E-01  0.8549E-01
     10.995  0.3218E-02  0.3218E-02  0.8597E-01  0.8597E-01
     11.144  0.3148E-02  0.3148E-02  0.8645E-01  0.8645E-01
     11.294  0.2897E-02  0.2897E-02  0.8690E-01  0.8690E-01
     11.443  0.2761E-02  0.2761E-02  0.8732E-01  0.8732E-01
     11.592  0.2692E-02  0.2692E-02  0.8773E-01  0.8773E-01
     11.742  0.2620E-02  0.2620E-02  0.8813E-01  0.8813E-01
     11.891  0.2452E-02  0.2452E-02  0.8851E-01  0.8851E-01
     12.041  0.2347E-02  0.2347E-02  0.8887E-01  0.8887E-01
     12.190  0.2251E-02  0.2251E-02  0.8921E-01  0.8921E-01
     12.339  0.2171E-02  0.2171E-02  0.8954E-01  0.8954E-01
     12.489  0.2114E-02  0.2114E-02  0.8986E-01  0.8986E-01
     12.638  0.2062E-02  0.2062E-02  0.9017E-01  0.9017E-01
     12.788  0.2015E-02  0.2015E-02  0.9048E-01  0.9048E-01
     12.937  0.1969E-02  0.1969E-02  0.9077E-01  0.9077E-01
     13.086  0.1921E-02  0.1921E-02  0.9106E-01  0.9106E-01
     13.236  0.1874E-02  0.1874E-02  0.9135E-01  0.9135E-01
     13.385  0.1831E-02  0.1831E-02  0.9162E-01  0.9162E-01
     13.535  0.1800E-02  0.1800E-02  0.9190E-01  0.9189E-01
     13.684  0.1767E-02  0.1767E-02  0.9216E-01  0.9216E-01
     13.834  0.1732E-02  0.1732E-02  0.9242E-01  0.9242E-01
     13.983  0.1700E-02  0.1700E-02  0.9268E-01  0.9268E-01
     14.132  0.1670E-02  0.1670E-02  0.9293E-01  0.9293E-01
     14.282  0.1641E-02  0.1641E-02  0.9318E-01  0.9318E-01
     14.431  0.1613E-02  0.1613E-02  0.9342E-01  0.9342E-01
     14.581  0.1587E-02  0.1587E-02  0.9366E-01  0.9366E-01
     14.730  0.1570E-02  0.1570E-02  0.9390E-01  0.9390E-01
     14.879  0.1555E-02  0.1555E-02  0.9413E-01  0.9413E-01
     15.029  0.1544E-02  0.1544E-02  0.9436E-01  0.9436E-01
     15.178  0.1539E-02  0.1539E-02  0.9459E-01  0.9459E-01
     15.328  0.1590E-02  0.1590E-02  0.9482E-01  0.9482E-01
     15.477  0.2029E-02  0.2029E-02  0.9509E-01  0.9509E-01
     15.626  0.2647E-02  0.2647E-02  0.9544E-01  0.9544E-01
     15.776  0.3021E-02  0.3021E-02  0.9587E-01  0.9587E-01
     15.925  0.3202E-02  0.3202E-02  0.9633E-01  0.9633E-01
     16.075  0.3432E-02  0.3432E-02  0.9683E-01  0.9683E-01
     16.224  0.3735E-02  0.3735E-02  0.9736E-01  0.9736E-01
     16.373  0.4163E-02  0.4163E-02  0.9795E-01  0.9795E-01
     16.523  0.5030E-02  0.5030E-02  0.9862E-01  0.9862E-01
     16.672  0.6308E-02  0.6307E-02  0.9948E-01  0.9948E-01
     16.822  0.6524E-02  0.6524E-02  0.1005E+00  0.1005E+00
     16.971  0.8912E-02  0.8911E-02  0.1015E+00  0.1015E+00
     17.120  0.9733E-02  0.9733E-02  0.1030E+00  0.1030E+00
     17.270  0.6130E-02  0.6131E-02  0.1043E+00  0.1043E+00
     17.419  0.6488E-02  0.6488E-02  0.1051E+00  0.1051E+00
     17.569  0.7559E-02  0.7559E-02  0.1062E+00  0.1062E+00
     17.718  0.7665E-02  0.7665E-02  0.1073E+00  0.1073E+00
     17.867  0.6922E-02  0.6922E-02  0.1084E+00  0.1084E+00
     18.017  0.7412E-02  0.7412E-02  0.1095E+00  0.1095E+00
     18.166  0.7376E-02  0.7376E-02  0.1106E+00  0.1106E+00
     18.316  0.7248E-02  0.7248E-02  0.1117E+00  0.1117E+00
     18.465  0.7647E-02  0.7647E-02  0.1128E+00  0.1128E+00
     18.614  0.6786E-02  0.6787E-02  0.1139E+00  0.1139E+00
     18.764  0.6360E-02  0.6360E-02  0.1149E+00  0.1149E+00
     18.913  0.5839E-02  0.5839E-02  0.1158E+00  0.1158E+00
     19.063  0.6621E-02  0.6621E-02  0.1167E+00  0.1167E+00
     19.212  0.7722E-02  0.7722E-02  0.1178E+00  0.1178E+00
     19.362  0.7302E-02  0.7302E-02  0.1189E+00  0.1189E+00
     19.511  0.7532E-02  0.7532E-02  0.1200E+00  0.1200E+00
     19.660  0.8231E-02  0.8230E-02  0.1211E+00  0.1211E+00
     19.810  0.5952E-02  0.5952E-02  0.1221E+00  0.1221E+00
     19.959  0.5487E-02  0.5487E-02  0.1230E+00  0.1230E+00
     20.109  0.4874E-02  0.4874E-02  0.1237E+00  0.1237E+00
     20.258  0.4445E-02  0.4445E-02  0.1244E+00  0.1244E+00
     20.407  0.4355E-02  0.4355E-02  0.1251E+00  0.1251E+00
     20.557  0.4868E-02  0.4871E-02  0.1257E+00  0.1257E+00
     20.706  0.4578E-02  0.4578E-02  0.1264E+00  0.1264E+00
     20.856  0.4475E-02  0.4475E-02  0.1271E+00  0.1271E+00
     21.005  0.4599E-02  0.4599E-02  0.1278E+00  0.1278E+00
     21.154  0.5661E-02  0.5661E-02  0.1285E+00  0.1285E+00
     21.304  0.6221E-02  0.6221E-02  0.1294E+00  0.1294E+00
     21.453  0.6660E-02  0.6660E-02  0.1304E+00  0.1304E+00
     21.603  0.6951E-02  0.6951E-02  0.1314E+00  0.1314E+00
     21.752  0.7624E-02  0.7623E-02  0.1325E+00  0.1325E+00
     21.901  0.8511E-02  0.8511E-02  0.1337E+00  0.1337E+00
     22.051  0.9040E-02  0.9039E-02  0.1349E+00  0.1349E+00
     22.200  0.8966E-02  0.8966E-02  0.1363E+00  0.1363E+00
     22.350  0.7433E-02  0.7433E-02  0.1375E+00  0.1375E+00
     22.499  0.7182E-02  0.7182E-02  0.1386E+00  0.1386E+00
     22.648  0.7202E-02  0.7202E-02  0.1397E+00  0.1397E+00
     22.798  0.7118E-02  0.7118E-02  0.1408E+00  0.1408E+00
     22.947  0.6869E-02  0.6869E-02  0.1418E+00  0.1418E+00
     23.097  0.6502E-02  0.6502E-02  0.1428E+00  0.1428E+00
     23.246  0.6512E-02  0.6512E-02  0.1438E+00  0.1438E+00
     23.395  0.6713E-02  0.6713E-02  0.1448E+00  0.1448E+00
     23.545  0.6575E-02  0.6575E-02  0.1458E+00  0.1458E+00
     23.694  0.5956E-02  0.5956E-02  0.1467E+00  0.1467E+00
     23.844  0.6290E-02  0.6290E-02  0.1476E+00  0.1476E+00
     23.993  0.6847E-02  0.6849E-02  0.1485E+00  0.1485E+00
     24.142  0.5477E-02  0.5477E-02  0.1494E+00  0.1494E+00
     24.292  0.5104E-02  0.5104E-02  0.1502E+00  0.1502E+00
     24.441  0.4908E-02  0.4908E-02  0.1509E+00  0.1509E+00
     24.591  0.4851E-02  0.4851E-02  0.1517E+00  0.1517E+00
     24.740  0.4826E-02  0.4826E-02  0.1524E+00  0.1524E+00
     24.890  0.4725E-02  0.4725E-02  0.1531E+00  0.1531E+00
     25.039  0.4694E-02  0.4694E-02  0.1538E+00  0.1538E+00
     25.188  0.4119E-02  0.4119E-02  0.1545E+00  0.1545E+00
     25.338  0.3815E-02  0.3815E-02  0.1550E+00  0.1550E+00
     25.487  0.3640E-02  0.3640E-02  0.1556E+00  0.1556E+00
     25.637  0.3427E-02  0.3427E-02  0.1561E+00  0.1561E+00
     25.786  0.3399E-02  0.3398E-02  0.1566E+00  0.1566E+00
     25.935  0.3180E-02  0.3175E-02  0.1571E+00  0.1571E+00
     26.085  0.2981E-02  0.2971E-02  0.1576E+00  0.1576E+00
     26.234  0.2838E-02  0.2826E-02  0.1580E+00  0.1580E+00
     26.384  0.2453E-02  0.2437E-02  0.1584E+00  0.1584E+00
     26.533  0.2211E-02  0.2189E-02  0.1588E+00  0.1588E+00
     26.682  0.1930E-02  0.1900E-02  0.1591E+00  0.1591E+00
     26.832  0.1677E-02  0.1648E-02  0.1594E+00  0.1593E+00
     26.981  0.1380E-02  0.1358E-02  0.1596E+00  0.1596E+00
     27.131  0.1017E-02  0.1017E-02  0.1598E+00  0.1597E+00
     27.280  0.6762E-03  0.7039E-03  0.1599E+00  0.1599E+00
     27.429  0.3555E-03  0.4042E-03  0.1600E+00  0.1600E+00
     27.579  0.7889E-04  0.1416E-03  0.1600E+00  0.1600E+00
     27.728  0.0000E+00  0.7697E-05  0.1600E+00  0.1600E+00
     27.878  0.0000E+00  0.0000E+00  0.1600E+00  0.1600E+00
     28.027  0.0000E+00  0.0000E+00  0.1600E+00  0.1600E+00
     28.176  0.0000E+00  0.0000E+00  0.1600E+00  0.1600E+00
     28.326  0.0000E+00  0.0000E+00  0.1600E+00  0.1600E+00
     28.475  0.0000E+00  0.0000E+00  0.1600E+00  0.1600E+00
     28.625  0.0000E+00  0.0000E+00  0.1600E+00  0.1600E+00
     28.774  0.0000E+00  0.0000E+00  0.1600E+00  0.1600E+00
     28.923  0.0000E+00  0.0000E+00  0.1600E+00  0.1600E+00
     29.073  0.0000E+00  0.0000E+00  0.1600E+00  0.1600E+00
     29.222  0.0000E+00  0.0000E+00  0.1600E+00  0.1600E+00
     29.372  0.0000E+00  0.0000E+00  0.1600E+00  0.1600E+00
     29.521  0.0000E+00  0.0000E+00  0.1600E+00  0.1600E+00
     29.670  0.0000E+00  0.0000E+00  0.1600E+00  0.1600E+00
     29.820  0.0000E+00  0.0000E+00  0.1600E+00  0.1600E+00
     29.81988075    -15.00171141  301      7.96198163      1.00000000
    -15.002  0.0000E+00  0.0000E+00  0.0000E+00  0.0000E+00  0.0000E+00  0.0000E+00  0.0000E+00  0.0000E+00  0.0000E+00  0.0000E+00  0.0000E+00  0.0000E+00  0.0000E+00  0.0000E+00  0.0000E+00  0.0000E+00  0.0000E+00  0.0000E+00
    -14.852  0.0000E+00  0.0000E+00  0.0000E+00  0.0000E+00  0.0000E+00  0.0000E+00  0.0000E+00  0.0000E+00  0.0000E+00  0.0000E+00  0.0000E+00  0.0000E+00  0.0000E+00  0.0000E+00  0.0000E+00  0.0000E+00  0.0000E+00  0.0000E+00
    -14.703  0.0000E+00  0.0000E+00  0.0000E+00  0.0000E+00  0.0000E+00  0.0000E+00  0.0000E+00  0.0000E+00  0.0000E+00  0.0000E+00  0.0000E+00  0.0000E+00  0.0000E+00  0.0000E+00  0.0000E+00  0.0000E+00  0.0000E+00  0.0000E+00
    -14.553  0.0000E+00  0.0000E+00  0.0000E+00  0.0000E+00  0.0000E+00  0.0000E+00  0.0000E+00  0.0000E+00  0.0000E+00  0.0000E+00  0.0000E+00  0.0000E+00  0.0000E+00  0.0000E+00  0.0000E+00  0.0000E+00  0.0000E+00  0.0000E+00
    -14.404  0.0000E+00  0.0000E+00  0.0000E+00  0.0000E+00  0.0000E+00  0.0000E+00  0.0000E+00  0.0000E+00  0.0000E+00  0.0000E+00  0.0000E+00  0.0000E+00  0.0000E+00  0.0000E+00  0.0000E+00  0.0000E+00  0.0000E+00  0.0000E+00
    -14.255  0.0000E+00  0.0000E+00  0.0000E+00  0.0000E+00  0.0000E+00  0.0000E+00  0.0000E+00  0.0000E+00  0.0000E+00  0.0000E+00  0.0000E+00  0.0000E+00  0.0000E+00  0.0000E+00  0.0000E+00  0.0000E+00  0.0000E+00  0.0000E+00
    -14.105  0.0000E+00  0.0000E+00  0.0000E+00  0.0000E+00  0.0000E+00  0.0000E+00  0.0000E+00  0.0000E+00  0.0000E+00  0.0000E+00  0.0000E+00  0.0000E+00  0.0000E+00  0.0000E+00  0.0000E+00  0.0000E+00  0.0000E+00  0.0000E+00
    -13.956  0.0000E+00  0.0000E+00  0.0000E+00  0.0000E+00  0.0000E+00  0.0000E+00  0.0000E+00  0.0000E+00  0.0000E+00  0.0000E+00  0.0000E+00  0.0000E+00  0.0000E+00  0.0000E+00  0.0000E+00  0.0000E+00  0.0000E+00  0.0000E+00
    -13.806  0.0000E+00  0.0000E+00  0.0000E+00  0.0000E+00  0.0000E+00  0.0000E+00  0.0000E+00  0.0000E+00  0.0000E+00  0.0000E+00  0.0000E+00  0.0000E+00  0.0000E+00  0.0000E+00  0.0000E+00  0.0000E+00  0.0000E+00  0.0000E+00
    -13.657  0.0000E+00  0.0000E+00  0.0000E+00  0.0000E+00  0.0000E+00  0.0000E+00  0.0000E+00  0.0000E+00  0.0000E+00  0.0000E+00  0.0000E+00  0.0000E+00  0.0000E+00  0.0000E+00  0.0000E+00  0.0000E+00  0.0000E+00  0.0000E+00
    -13.508  0.0000E+00  0.0000E+00  0.0000E+00  0.0000E+00  0.0000E+00  0.0000E+00  0.0000E+00  0.0000E+00  0.0000E+00  0.0000E+00  0.0000E+00  0.0000E+00  0.0000E+00  0.0000E+00  0.0000E+00  0.0000E+00  0.0000E+00  0.0000E+00
    -13.358  0.0000E+00  0.0000E+00  0.0000E+00  0.0000E+00  0.0000E+00  0.0000E+00  0.0000E+00  0.0000E+00  0.0000E+00  0.0000E+00  0.0000E+00  0.0000E+00  0.0000E+00  0.0000E+00  0.0000E+00  0.0000E+00  0.0000E+00  0.0000E+00
    -13.209  0.0000E+00  0.0000E+00  0.0000E+00  0.0000E+00  0.0000E+00  0.0000E+00  0.0000E+00  0.0000E+00  0.0000E+00  0.0000E+00  0.0000E+00  0.0000E+00  0.0000E+00  0.0000E+00  0.0000E+00  0.0000E+00  0.0000E+00  0.0000E+00
    -13.059  0.0000E+00  0.0000E+00  0.0000E+00  0.0000E+00  0.0000E+00  0.0000E+00  0.0000E+00  0.0000E+00  0.0000E+00  0.0000E+00  0.0000E+00  0.0000E+00  0.0000E+00  0.0000E+00  0.0000E+00  0.0000E+00  0.0000E+00  0.0000E+00
    -12.910  0.1651E-02  0.1650E-02  0.1307E-05  0.1307E-05  0.1223E-05  0.1223E-05  0.3922E-05  0.3920E-05  0.0000E+00  0.0000E+00  0.0000E+00  0.0000E+00  0.0000E+00  0.0000E+00  0.0000E+00  0.0000E+00  0.0000E+00  0.0000E+00
    -12.761  0.9807E-02  0.9806E-02  0.3321E-04  0.3321E-04  0.1128E-04  0.1128E-04  0.4204E-04  0.4203E-04  0.0000E+00  0.0000E+00  0.0000E+00  0.0000E+00  0.0000E+00  0.0000E+00  0.0000E+00  0.0000E+00  0.0000E+00  0.0000E+00
    -12.611  0.1450E-01  0.1450E-01  0.9865E-04  0.9865E-04  0.1811E-04  0.1811E-04  0.1055E-03  0.1055E-03  0.0000E+00  0.0000E+00  0.0000E+00  0.0000E+00  0.0000E+00  0.0000E+00  0.0000E+00  0.0000E+00  0.0000E+00  0.0000E+00
    -12.462  0.1859E-01  0.1859E-01  0.1756E-03  0.1756E-03  0.2112E-04  0.2112E-04  0.1884E-03  0.1884E-03  0.0000E+00  0.0000E+00  0.0000E+00  0.0000E+00  0.0000E+00  0.0000E+00  0.0000E+00  0.0000E+00  0.0000E+00  0.0000E+00
    -12.312  0.2357E-01  0.2357E-01  0.2769E-03  0.2769E-03  0.2505E-04  0.2505E-04  0.3013E-03  0.3013E-03  0.0000E+00  0.0000E+00  0.0000E+00  0.0000E+00  0.0000E+00  0.0000E+00  0.0000E+00  0.0000E+00  0.0000E+00  0.0000E+00
    -12.163  0.2803E-01  0.2803E-01  0.4097E-03  0.4097E-03  0.2799E-04  0.2799E-04  0.4260E-03  0.4260E-03  0.0000E+00  0.0000E+00  0.0000E+00  0.0000E+00  0.0000E+00  0.0000E+00  0.0000E+00  0.0000E+00  0.0000E+00  0.0000E+00
    -12.014  0.2908E-01  0.2908E-01  0.5491E-03  0.5491E-03  0.5416E-04  0.5415E-04  0.5666E-03  0.5666E-03  0.0000E+00  0.0000E+00  0.0000E+00  0.0000E+00  0.0000E+00  0.0000E+00  0.0000E+00  0.0000E+00  0.0000E+00  0.0000E+00
    -11.864  0.2985E-01  0.2985E-01  0.6875E-03  0.6875E-03  0.7824E-04  0.7824E-04  0.7148E-03  0.7148E-03  0.0000E+00  0.0000E+00  0.0000E+00  0.0000E+00  0.0000E+00  0.0000E+00  0.0000E+00  0.0000E+00  0.0000E+00  0.0000E+00
    -11.715  0.3093E-01  0.3093E-01  0.8423E-03  0.8423E-03  0.9868E-04  0.9868E-04  0.8627E-03  0.8627E-03  0.0000E+00  0.0000E+00  0.0000E+00  0.0000E+00  0.0000E+00  0.0000E+00  0.0000E+00  0.0000E+00  0.0000E+00  0.0000E+00
    -11.565  0.3263E-01  0.3263E-01  0.1015E-02  0.1015E-02  0.1178E-03  0.1178E-03  0.1022E-02  0.1022E-02  0.0000E+00  0.0000E+00  0.0000E+00  0.0000E+00  0.0000E+00  0.0000E+00  0.0000E+00  0.0000E+00  0.0000E+00  0.0000E+00
    -11.416  0.3611E-01  0.3611E-01  0.1161E-02  0.1161E-02  0.1344E-03  0.1344E-03  0.1200E-02  0.1200E-02  0.0000E+00  0.0000E+00  0.0000E+00  0.0000E+00  0.0000E+00  0.0000E+00  0.0000E+00  0.0000E+00  0.0000E+00  0.0000E+00
    -11.267  0.4076E-01  0.4076E-01  0.1343E-02  0.1343E-02  0.1477E-03  0.1476E-03  0.1393E-02  0.1393E-02  0.0000E+00  0.0000E+00  0.0000E+00  0.0000E+00  0.0000E+00  0.0000E+00  0.0000E+00  0.0000E+00  0.0000E+00  0.0000E+00
    -11.117  0.4624E-01  0.4624E-01  0.1614E-02  0.1614E-02  0.1528E-03  0.1528E-03  0.1638E-02  0.1638E-02  0.0000E+00  0.0000E+00  0.0000E+00  0.0000E+00  0.0000E+00  0.0000E+00  0.0000E+00  0.0000E+00  0.0000E+00  0.0000E+00
    -10.968  0.4637E-01  0.4637E-01  0.1842E-02  0.1842E-02  0.1515E-03  0.1515E-03  0.1871E-02  0.1871E-02  0.0000E+00  0.0000E+00  0.0000E+00  0.0000E+00  0.0000E+00  0.0000E+00  0.0000E+00  0.0000E+00  0.0000E+00  0.0000E+00
    -10.818  0.4586E-01  0.4586E-01  0.2060E-02  0.2060E-02  0.1492E-03  0.1492E-03  0.2101E-02  0.2101E-02  0.0000E+00  0.0000E+00  0.0000E+00  0.0000E+00  0.0000E+00  0.0000E+00  0.0000E+00  0.0000E+00  0.0000E+00  0.0000E+00
    -10.669  0.4533E-01  0.4533E-01  0.2296E-02  0.2296E-02  0.1494E-03  0.1494E-03  0.2331E-02  0.2331E-02  0.0000E+00  0.0000E+00  0.0000E+00  0.0000E+00  0.0000E+00  0.0000E+00  0.0000E+00  0.0000E+00  0.0000E+00  0.0000E+00
    -10.520  0.4550E-01  0.4550E-01  0.2588E-02  0.2588E-02  0.1437E-03  0.1437E-03  0.2589E-02  0.2589E-02  0.0000E+00  0.0000E+00  0.0000E+00  0.0000E+00  0.0000E+00  0.0000E+00  0.0000E+00  0.0000E+00  0.0000E+00  0.0000E+00
    -10.370  0.4520E-01  0.4520E-01  0.2810E-02  0.2810E-02  0.1426E-03  0.1426E-03  0.2827E-02  0.2827E-02  0.0000E+00  0.0000E+00  0.0000E+00  0.0000E+00  0.0000E+00  0.0000E+00  0.0000E+00  0.0000E+00  0.0000E+00  0.0000E+00
    -10.221  0.4458E-01  0.4458E-01  0.3015E-02  0.3015E-02  0.1428E-03  0.1428E-03  0.3049E-02  0.3049E-02  0.0000E+00  0.0000E+00  0.0000E+00  0.0000E+00  0.0000E+00  0.0000E+00  0.0000E+00  0.0000E+00  0.0000E+00  0.0000E+00
    -10.071  0.4447E-01  0.4447E-01  0.3241E-02  0.3241E-02  0.1408E-03  0.1408E-03  0.3277E-02  0.3277E-02  0.0000E+00  0.0000E+00  0.0000E+00  0.0000E+00  0.0000E+00  0.0000E+00  0.0000E+00  0.0000E+00  0.0000E+00  0.0000E+00
     -9.922  0.4454E-01  0.4454E-01  0.3512E-02  0.3512E-02  0.1375E-03  0.1375E-03  0.3538E-02  0.3538E-02  0.0000E+00  0.0000E+00  0.0000E+00  0.0000E+00  0.0000E+00  0.0000E+00  0.0000E+00  0.0000E+00  0.0000E+00  0.0000E+00
     -9.773  0.4419E-01  0.4419E-01  0.3768E-02  0.3768E-02  0.1360E-03  0.1360E-03  0.3783E-02  0.3783E-02  0.0000E+00  0.0000E+00  0.0000E+00  0.0000E+00  0.0000E+00  0.0000E+00  0.0000E+00  0.0000E+00  0.0000E+00  0.0000E+00
     -9.623  0.4381E-01  0.4381E-01  0.3991E-02  0.3991E-02  0.1350E-03  0.1350E-03  0.4004E-02  0.4004E-02  0.0000E+00  0.0000E+00  0.0000E+00  0.0000E+00  0.0000E+00  0.0000E+00  0.0000E+00  0.0000E+00  0.0000E+00  0.0000E+00
     -9.474  0.4351E-01  0.4351E-01  0.4198E-02  0.4197E-02  0.1343E-03  0.1343E-03  0.4217E-02  0.4217E-02  0.0000E+00  0.0000E+00  0.0000E+00  0.0000E+00  0.0000E+00  0.0000E+00  0.0000E+00  0.0000E+00  0.0000E+00  0.0000E+00
     -9.324  0.4346E-01  0.4346E-01  0.4450E-02  0.4450E-02  0.1319E-03  0.1319E-03  0.4457E-02  0.4457E-02  0.0000E+00  0.0000E+00  0.0000E+00  0.0000E+00  0.0000E+00  0.0000E+00  0.0000E+00  0.0000E+00  0.0000E+00  0.0000E+00
     -9.175  0.4333E-01  0.4333E-01  0.4700E-02  0.4700E-02  0.1304E-03  0.1304E-03  0.4693E-02  0.4693E-02  0.0000E+00  0.0000E+00  0.0000E+00  0.0000E+00  0.0000E+00  0.0000E+00  0.0000E+00  0.0000E+00  0.0000E+00  0.0000E+00
     -9.025  0.4315E-01  0.4315E-01  0.4959E-02  0.4959E-02  0.1291E-03  0.1291E-03  0.4928E-02  0.4928E-02  0.0000E+00  0.0000E+00  0.0000E+00  0.0000E+00  0.0000E+00  0.0000E+00  0.0000E+00  0.0000E+00  0.0000E+00  0.0000E+00
     -8.876  0.4301E-01  0.4301E-01  0.5187E-02  0.5187E-02  0.1277E-03  0.1277E-03  0.5151E-02  0.5151E-02  0.0000E+00  0.0000E+00  0.0000E+00  0.0000E+00  0.0000E+00  0.0000E+00  0.0000E+00  0.0000E+00  0.0000E+00  0.0000E+00
     -8.727  0.4280E-01  0.4280E-01  0.5393E-02  0.5393E-02  0.1269E-03  0.1269E-03  0.5361E-02  0.5361E-02  0.0000E+00  0.0000E+00  0.0000E+00  0.0000E+00  0.0000E+00  0.0000E+00  0.0000E+00  0.0000E+00  0.0000E+00  0.0000E+00
     -8.577  0.4264E-01  0.4264E-01  0.5637E-02  0.5637E-02  0.1256E-03  0.1256E-03  0.5585E-02  0.5585E-02  0.0000E+00  0.0000E+00  0.0000E+00  0.0000E+00  0.0000E+00  0.0000E+00  0.0000E+00  0.0000E+00  0.0000E+00  0.0000E+00
     -8.428  0.4251E-01  0.4251E-01  0.5880E-02  0.5880E-02  0.1244E-03  0.1244E-03  0.5810E-02  0.5810E-02  0.0000E+00  0.0000E+00  0.0000E+00  0.0000E+00  0.0000E+00  0.0000E+00  0.0000E+00  0.0000E+00  0.0000E+00  0.0000E+00
     -8.278  0.4260E-01  0.4260E-01  0.6101E-02  0.6101E-02  0.1236E-03  0.1236E-03  0.6018E-02  0.6018E-02  0.0000E+00  0.0000E+00  0.0000E+00  0.0000E+00  0.0000E+00  0.0000E+00  0.0000E+00  0.0000E+00  0.0000E+00  0.0000E+00
     -8.129  0.4272E-01  0.4272E-01  0.6324E-02  0.6324E-02  0.1229E-03  0.1229E-03  0.6217E-02  0.6217E-02  0.0000E+00  0.0000E+00  0.0000E+00  0.0000E+00  0.0000E+00  0.0000E+00  0.0000E+00  0.0000E+00  0.0000E+00  0.0000E+00
     -7.980  0.4282E-01  0.4282E-01  0.6548E-02  0.6548E-02  0.1222E-03  0.1222E-03  0.6400E-02  0.6400E-02  0.0000E+00  0.0000E+00  0.0000E+00  0.0000E+00  0.0000E+00  0.0000E+00  0.0000E+00  0.0000E+00  0.0000E+00  0.0000E+00
     -7.830  0.4305E-01  0.4305E-01  0.6769E-02  0.6769E-02  0.1219E-03  0.1219E-03  0.6563E-02  0.6563E-02  0.0000E+00  0.0000E+00  0.0000E+00  0.0000E+00  0.0000E+00  0.0000E+00  0.0000E+00  0.0000E+00  0.0000E+00  0.0000E+00
     -7.681  0.4347E-01  0.4347E-01  0.7004E-02  0.7004E-02  0.1219E-03  0.1219E-03  0.6725E-02  0.6725E-02  0.0000E+00  0.0000E+00  0.0000E+00  0.0000E+00  0.0000E+00  0.0000E+00  0.0000E+00  0.0000E+00  0.0000E+00  0.0000E+00
     -7.531  0.4439E-01  0.4439E-01  0.7214E-02  0.7214E-02  0.1226E-03  0.1226E-03  0.6877E-02  0.6877E-02  0.0000E+00  0.0000E+00  0.0000E+00  0.0000E+00  0.0000E+00  0.0000E+00  0.0000E+00  0.0000E+00  0.0000E+00  0.0000E+00