    4    4  100    2
  0.1028436E+02  0.2467291E-09  0.2467292E-09  0.7803073E-09  0.1500000E-16
   1.0000000000000000E-004
  CAR 
 unknown system                          
     16    111     16
 
  0.3742002E-15  0.3742002E-15  0.3742002E-15  0.7716049E-03
    1      -12.964366    -12.964353   1.000000   1.000000
    2      -11.138673    -11.138659   1.000000   1.000000
    3       -2.701864     -2.701852   1.000000   1.000000
    4        3.733335      3.733354   1.000000   1.000000
    5        5.123124      5.123144   1.000000   1.000000
    6        5.123184      5.123203   1.000000   1.000000
    7        5.325984      5.326003   1.000000   1.000000
    8        5.326042      5.326061   1.000000   1.000000
    9       16.436919     16.436925   0.000000   0.000000
   10       16.880773     16.880794   0.000000   0.000000
   11       16.880835     16.880857   0.000000   0.000000
   12       17.279824     17.279845   0.000000   0.000000
   13       17.279891     17.279912   0.000000   0.000000
   14       19.878471     19.878497   0.000000   0.000000
   15       21.255468     21.255496   0.000000   0.000000
   16       21.832937     21.832953   0.000000   0.000000
 
  0.5555556E-01  0.3821610E-15  0.3742002E-15  0.4629630E-02
    1      -12.884653    -12.884640   1.000000   1.000000
    2      -11.065019    -11.065004   1.000000   1.000000
    3       -2.604676     -2.604664   1.000000   1.000000
    4        3.814944      3.814962   1.000000   1.000000
    5        4.782249      4.782268   1.000000   1.000000
    6        4.928900      4.928919   1.000000   1.000000
    7        5.045606      5.045625   1.000000   1.000000
    8        5.176715      5.176735   1.000000   1.000000
    9       16.469813     16.469820   0.000000   0.000000
   10       16.902274     16.902294   0.000000   0.000000
   11       17.223219     17.223240   0.000000   0.000000
   12       17.391384     17.391404   0.000000   0.000000
   13       17.627907     17.627929   0.000000   0.000000
   14       19.553850     19.553875   0.000000   0.000000
   15       20.984631     20.984658   0.000000   0.000000
   16       21.966528     21.966544   0.000000   0.000000
 
  0.1111111E+00  0.3889703E-15  0.3742002E-15  0.4629630E-02
    1      -12.645787    -12.645773   1.000000   1.000000
    2      -10.844478    -10.844464   1.000000   1.000000
    3       -2.313939     -2.313927   1.000000   1.000000
    4        3.861831      3.861849   1.000000   1.000000
    5        4.057869      4.057888   1.000000   1.000000
    6        4.256746      4.256765   1.000000   1.000000
    7        4.434257      4.434276   1.000000   1.000000
    8        4.761670      4.761689   1.000000   1.000000
    9       16.572514     16.572524   0.000000   0.000000
   10       16.899821     16.899839   0.000000   0.000000
   11       17.645571     17.645588   0.000000   0.000000
   12       18.184076     18.184098   0.000000   0.000000
   13       18.604080     18.604102   0.000000   0.000000
   14       18.634973     18.634997   0.000000   0.000000
   15       20.224915     20.224940   0.000000   0.000000
   16       22.372770     22.372787   0.000000   0.000000
 
  0.1666667E+00  0.3636087E-15  0.3742002E-15  0.4629630E-02
    1      -12.248860    -12.248847   1.000000   1.000000
    2      -10.477856    -10.477841   1.000000   1.000000
    3       -1.831652     -1.831640   1.000000   1.000000
    4        2.554199      2.554217   1.000000   1.000000
    5        3.101819      3.101837   1.000000   1.000000
    6        3.791896      3.791914   1.000000   1.000000
    7        4.185233      4.185252   1.000000   1.000000
    8        4.454871      4.454890   1.000000   1.000000
    9       16.548775     16.548790   0.000000   0.000000
   10       17.010221     17.010235   0.000000   0.000000
   11       17.242013     17.242035   0.000000   0.000000
   12       17.921742     17.921755   0.000000   0.000000
   13       19.128139     19.128163   0.000000   0.000000
   14       19.634967     19.634989   0.000000   0.000000
   15       20.059950     20.059973   0.000000   0.000000
   16       22.978214     22.978231   0.000000   0.000000
 
  0.2222222E+00  0.3951816E-15  0.3742002E-15  0.4629630E-02
    1      -11.695932    -11.695918   1.000000   1.000000
    2       -9.967088     -9.967073   1.000000   1.000000
    3       -1.161988     -1.161975   1.000000   1.000000
    4        1.033870      1.033887   1.000000   1.000000
    5        1.734503      1.734520   1.000000   1.000000
    6        3.123138      3.123156   1.000000   1.000000
    7        3.563009      3.563028   1.000000   1.000000
    8        4.990229      4.990247   1.000000   1.000000
    9       15.532868     15.532888   0.000000   0.000000
   10       16.294839     16.294854   0.000000   0.000000
   11       17.289483     17.289498   0.000000   0.000000
   12       17.855768     17.855792   0.000000   0.000000
   13       18.226671     18.226680   0.000000   0.000000
   14       21.432422     21.432445   0.000000   0.000000
   15       21.844840     21.844863   0.000000   0.000000
   16       23.622166     23.622184   0.000000   0.000000
 
  0.2777778E+00  0.3860699E-15  0.3742002E-15  0.4629630E-02
    1      -10.989599    -10.989586   1.000000   1.000000
    2       -9.314724     -9.314710   1.000000   1.000000
    3       -0.574987     -0.574971   1.000000   1.000000
    4       -0.311729     -0.311716   1.000000   1.000000
    5        0.272271      0.272288   1.000000   1.000000
    6        2.509220      2.509238   1.000000   1.000000
    7        2.979763      2.979782   1.000000   1.000000
    8        5.629701      5.629720   1.000000   1.000000
    9       13.697994     13.698013   0.000000   0.000000
   10       15.984021     15.984035   0.000000   0.000000
   11       16.502964     16.502987   0.000000   0.000000
   12       17.486752     17.486769   0.000000   0.000000
   13       18.705140     18.705146   0.000000   0.000000
   14       23.461425     23.461450   0.000000   0.000000
   15       23.841329     23.841353   0.000000   0.000000
   16       24.125576     24.125594   0.000000   0.000000
 
  0.3333333E+00  0.3592851E-15  0.3742002E-15  0.4629630E-02
    1      -10.134396    -10.134382   1.000000   1.000000
    2       -8.525617     -8.525603   1.000000   1.000000
    3       -2.189451     -2.189435   1.000000   1.000000
    4       -1.207025     -1.207009   1.000000   1.000000
    5        0.705294      0.705308   1.000000   1.000000
    6        1.997093      1.997111   1.000000   1.000000
    7        2.488224      2.488243   1.000000   1.000000
    8        6.283353      6.283372   1.000000   1.000000
    9       11.954437     11.954455   0.000000   0.000000
   10       15.123444     15.123466   0.000000   0.000000
   11       15.694537     15.694551   0.000000   0.000000
   12       17.543227     17.543243   0.000000   0.000000
   13       19.419374     19.419379   0.000000   0.000000
   14       24.296611     24.296627   0.000000   0.000000
   15       25.572064     25.572090   0.000000   0.000000
   16       25.905699     25.905726   0.000000   0.000000
 
  0.3888889E+00  0.3906177E-15  0.3742002E-15  0.4629630E-02
    1       -9.137253     -9.137239   1.000000   1.000000
    2       -7.608399     -7.608384   1.000000   1.000000
    3       -3.751572     -3.751557   1.000000   1.000000
    4       -2.649426     -2.649410   1.000000   1.000000
    5        1.615725      1.615742   1.000000   1.000000
    6        1.859478      1.859492   1.000000   1.000000
    7        2.120017      2.120035   1.000000   1.000000
    8        6.672985      6.673002   1.000000   1.000000
    9       10.669938     10.669955   0.000000   0.000000
   10       13.763014     13.763035   0.000000   0.000000
   11       15.467460     15.467474   0.000000   0.000000
   12       17.531755     17.531770   0.000000   0.000000
   13       20.306813     20.306820   0.000000   0.000000
   14       23.999157     23.999171   0.000000   0.000000
   15       26.803973     26.803984   0.000000   0.000000
   16       27.093800     27.093808   0.000000   0.000000
 
  0.4444444E+00  0.3934861E-15  0.3742002E-15  0.4629630E-02
    1       -8.014654     -8.014639   1.000000   1.000000
    2       -6.606095     -6.606080   1.000000   1.000000
    3       -5.185754     -5.185739   1.000000   1.000000
    4       -4.014635     -4.014620   1.000000   1.000000
    5        1.381248      1.381265   1.000000   1.000000
    6        1.892738      1.892756   1.000000   1.000000
    7        3.059315      3.059330   1.000000   1.000000
    8        6.296201      6.296216   1.000000   1.000000
    9       10.430755     10.430775   0.000000   0.000000
   10       12.494206     12.494226   0.000000   0.000000
   11       15.323925     15.323937   0.000000   0.000000
   12       17.508623     17.508638   0.000000   0.000000
   13       21.301519     21.301527   0.000000   0.000000
   14       23.284471     23.284483   0.000000   0.000000
   15       26.580061     26.580069   0.000000   0.000000
   16       26.719036     26.719048   0.000000   0.000000
 
  0.5000000E+00  0.4815189E-15  0.3742002E-15  0.2314815E-02
    1       -7.005425     -7.005408   1.000000   1.000000
    2       -6.528924     -6.528914   1.000000   1.000000
    3       -5.384379     -5.384359   1.000000   1.000000
    4       -5.130371     -5.130359   1.000000   1.000000
    5        1.302230      1.302248   1.000000   1.000000
    6        1.816003      1.816021   1.000000   1.000000
    7        3.797135      3.797151   1.000000   1.000000
    8        5.722596      5.722609   1.000000   1.000000
    9       10.850036     10.850057   0.000000   0.000000
   10       11.678504     11.678523   0.000000   0.000000
   11       15.275517     15.275530   0.000000   0.000000
   12       17.498709     17.498724   0.000000   0.000000
   13       22.320010     22.320021   0.000000   0.000000
   14       22.340984     22.340992   0.000000   0.000000
   15       26.458769     26.458776   0.000000   0.000000
   16       26.637083     26.637096   0.000000   0.000000
 
  0.5555556E-01  0.5555556E-01  0.3742002E-15  0.4629630E-02
    1      -12.725323    -12.725310   1.000000   1.000000
    2      -10.917884    -10.917869   1.000000   1.000000
    3       -2.410630     -2.410617   1.000000   1.000000
    4        3.977290      3.977309   1.000000   1.000000
    5        4.212702      4.212721   1.000000   1.000000
    6        4.413613      4.413631   1.000000   1.000000
    7        4.674011      4.674030   1.000000   1.000000
    8        4.840899      4.840918   1.000000   1.000000
    9       16.559928     16.559937   0.000000   0.000000
   10       16.983351     16.983371   0.000000   0.000000
   11       17.547320     17.547338   0.000000   0.000000
   12       17.863934     17.863955   0.000000   0.000000
   13       18.216110     18.216131   0.000000   0.000000
   14       18.938991     18.939015   0.000000   0.000000
   15       20.463487     20.463513   0.000000   0.000000
   16       22.255909     22.255926   0.000000   0.000000
 
  0.1111111E+00  0.5555556E-01  0.3742002E-15  0.9259259E-02
    1      -12.407472    -12.407459   1.000000   1.000000
    2      -10.624412    -10.624398   1.000000   1.000000
    3       -2.024212     -2.024199   1.000000   1.000000
    4        3.164058      3.164076   1.000000   1.000000
    5        3.534479      3.534497   1.000000   1.000000
    6        4.001224      4.001243   1.000000   1.000000
    7        4.288724      4.288743   1.000000   1.000000
    8        4.297529      4.297548   1.000000   1.000000
    9       16.742519     16.742531   0.000000   0.000000
   10       17.064877     17.064895   0.000000   0.000000
   11       17.812382     17.812405   0.000000   0.000000
   12       17.906111     17.906127   0.000000   0.000000
   13       18.845300     18.845322   0.000000   0.000000
   14       19.286769     19.286791   0.000000   0.000000
   15       19.513547     19.513571   0.000000   0.000000
   16       22.863267     22.863285   0.000000   0.000000
 
  0.1666667E+00  0.5555556E-01  0.3742002E-15  0.9259259E-02
    1      -11.932578    -11.932565   1.000000   1.000000
    2      -10.185683    -10.185669   1.000000   1.000000
    3       -1.447993     -1.447980   1.000000   1.000000
    4        1.785386      1.785403   1.000000   1.000000
    5        2.361661      2.361678   1.000000   1.000000
    6        3.252019      3.252038   1.000000   1.000000
    7        3.657938      3.657956   1.000000   1.000000
    8        4.765095      4.765113   1.000000   1.000000
    9       16.298884     16.298905   0.000000   0.000000
   10       16.726117     16.726133   0.000000   0.000000
   11       17.274198     17.274212   0.000000   0.000000
   12       18.237987     18.237999   0.000000   0.000000
   13       18.310393     18.310417   0.000000   0.000000
   14       20.200617     20.200638   0.000000   0.000000
   15       20.768864     20.768886   0.000000   0.000000
   16       23.688582     23.688601   0.000000   0.000000
 
  0.2222222E+00  0.5555556E-01  0.3742002E-15  0.9259259E-02
    1      -11.302945    -11.302931   1.000000   1.000000
    2       -9.604093     -9.604078   1.000000   1.000000
    3       -0.687487     -0.687474   1.000000   1.000000
    4        0.241393      0.241409   1.000000   1.000000
    5        0.991805      0.991822   1.000000   1.000000
    6        2.563950      2.563968   1.000000   1.000000
    7        3.036791      3.036810   1.000000   1.000000
    8        5.357548      5.357567   1.000000   1.000000
    9       14.551951     14.551970   0.000000   0.000000
   10       16.473681     16.473696   0.000000   0.000000
   11       17.000728     17.000751   0.000000   0.000000
   12       17.618744     17.618760   0.000000   0.000000
   13       18.575254     18.575261   0.000000   0.000000
   14       21.762181     21.762203   0.000000   0.000000
   15       22.533283     22.533306   0.000000   0.000000
   16       24.608560     24.608581   0.000000   0.000000
 
  0.2777778E+00  0.5555556E-01  0.3742002E-15  0.9259259E-02
    1      -10.522232    -10.522219   1.000000   1.000000
    2       -8.883397     -8.883383   1.000000   1.000000
    3       -1.358647     -1.358631   1.000000   1.000000
    4       -0.456695     -0.456679   1.000000   1.000000
    5        0.247511      0.247524   1.000000   1.000000
    6        1.978164      1.978182   1.000000   1.000000
    7        2.489356      2.489374   1.000000   1.000000
    8        6.021947      6.021966   1.000000   1.000000
    9       12.762766     12.762784   0.000000   0.000000
   10       15.654130     15.654152   0.000000   0.000000
   11       16.180608     16.180623   0.000000   0.000000
   12       17.821504     17.821521   0.000000   0.000000
   13       19.118239     19.118245   0.000000   0.000000
   14       23.148538     23.148558   0.000000   0.000000
   15       24.456771     24.456795   0.000000   0.000000
   16       25.651096     25.651118   0.000000   0.000000
 
  0.3333333E+00  0.5555556E-01  0.3742002E-15  0.9259259E-02
    1       -9.595857     -9.595843   1.000000   1.000000
    2       -8.029622     -8.029608   1.000000   1.000000
    3       -2.941344     -2.941329   1.000000   1.000000
    4       -1.906252     -1.906236   1.000000   1.000000
    5        1.337743      1.337757   1.000000   1.000000
    6        1.520274      1.520291   1.000000   1.000000
    7        2.054195      2.054213   1.000000   1.000000
    8        6.603968      6.603987   1.000000   1.000000
    9       11.195842     11.195859   0.000000   0.000000
   10       14.308032     14.308054   0.000000   0.000000
   11       15.922621     15.922635   0.000000   0.000000
   12       17.867689     17.867706   0.000000   0.000000
   13       19.901539     19.901545   0.000000   0.000000
   14       23.771220     23.771237   0.000000   0.000000
   15       25.893935     25.893942   0.000000   0.000000
   16       26.682894     26.682906   0.000000   0.000000
 
  0.3888889E+00  0.5555556E-01  0.3742002E-15  0.9259259E-02
    1       -8.534085     -8.534071   1.000000   1.000000
    2       -7.059273     -7.059258   1.000000   1.000000
    3       -4.447786     -4.447771   1.000000   1.000000
    4       -3.305078     -3.305062   1.000000   1.000000
    5        1.206804      1.206822   1.000000   1.000000
    6        1.754116      1.754134   1.000000   1.000000
    7        2.534386      2.534400   1.000000   1.000000
    8        6.660094      6.660111   1.000000   1.000000
    9       10.378761     10.378780   0.000000   0.000000
   10       13.005835     13.005856   0.000000   0.000000
   11       15.736030     15.736043   0.000000   0.000000
   12       17.855895     17.855910   0.000000   0.000000
   13       20.833598     20.833606   0.000000   0.000000
   14       23.536282     23.536295   0.000000   0.000000
   15       25.307747     25.307753   0.000000   0.000000
   16       26.427234     26.427247   0.000000   0.000000
 
  0.4444444E+00  0.5555556E-01  0.3742002E-15  0.9259259E-02
    1       -7.375248     -7.375233   1.000000   1.000000
    2       -6.235082     -6.235069   1.000000   1.000000
    3       -5.578645     -5.578628   1.000000   1.000000
    4       -4.604541     -4.604526   1.000000   1.000000
    5        1.047965      1.047983   1.000000   1.000000
    6        1.601273      1.601291   1.000000   1.000000
    7        3.636311      3.636327   1.000000   1.000000
    8        5.984029      5.984043   1.000000   1.000000
    9       10.660255     10.660276   0.000000   0.000000
   10       11.854229     11.854248   0.000000   0.000000
   11       15.638921     15.638935   0.000000   0.000000
   12       17.840600     17.840615   0.000000   0.000000
   13       21.832364     21.832373   0.000000   0.000000
   14       22.793451     22.793462   0.000000   0.000000
   15       25.007425     25.007431   0.000000   0.000000
   16       26.296016     26.296029   0.000000   0.000000
 
  0.1111111E+00  0.1111111E+00  0.3742002E-15  0.4629630E-02
    1      -12.011619    -12.011606   1.000000   1.000000
    2      -10.258725    -10.258711   1.000000   1.000000
    3       -1.543575     -1.543563   1.000000   1.000000
    4        2.232700      2.232718   1.000000   1.000000
    5        2.546491      2.546508   1.000000   1.000000
    6        3.286254      3.286273   1.000000   1.000000
    7        3.517324      3.517342   1.000000   1.000000
    8        4.689307      4.689325   1.000000   1.000000
    9       16.612229     16.612251   0.000000   0.000000
   10       17.124369     17.124380   0.000000   0.000000
   11       17.426812     17.426830   0.000000   0.000000
   12       18.319181     18.319195   0.000000   0.000000
   13       18.426094     18.426117   0.000000   0.000000
   14       19.550314     19.550334   0.000000   0.000000
   15       20.047475     20.047497   0.000000   0.000000
   16       23.827844     23.827864   0.000000   0.000000
 
  0.1666667E+00  0.1111111E+00  0.3742002E-15  0.9259259E-02
    1      -11.460078    -11.460065   1.000000   1.000000
    2       -9.749326     -9.749312   1.000000   1.000000
    3       -0.876193     -0.876180   1.000000   1.000000
    4        0.965283      0.965300   1.000000   1.000000
    5        1.469008      1.469025   1.000000   1.000000
    6        2.401263      2.401281   1.000000   1.000000
    7        2.769871      2.769889   1.000000   1.000000
    8        5.218522      5.218541   1.000000   1.000000
    9       15.127796     15.127816   0.000000   0.000000
   10       17.155030     17.155052   0.000000   0.000000
   11       17.393407     17.393422   0.000000   0.000000
   12       17.777268     17.777282   0.000000   0.000000
   13       18.817855     18.817868   0.000000   0.000000
   14       20.380895     20.380914   0.000000   0.000000
   15       21.176423     21.176444   0.000000   0.000000
   16       25.059249     25.059271   0.000000   0.000000
 
  0.2222222E+00  0.1111111E+00  0.3742002E-15  0.9259259E-02
    1      -10.756040    -10.756026   1.000000   1.000000
    2       -9.099374     -9.099359   1.000000   1.000000
    3       -0.516392     -0.516376   1.000000   1.000000
    4       -0.029189     -0.029176   1.000000   1.000000
    5        0.229475      0.229492   1.000000   1.000000
    6        1.620525      1.620543   1.000000   1.000000
    7        2.136895      2.136913   1.000000   1.000000
    8        5.853490      5.853508   1.000000   1.000000
    9       13.467776     13.467795   0.000000   0.000000
   10       15.850346     15.850367   0.000000   0.000000
   11       17.245252     17.245267   0.000000   0.000000
   12       18.304121     18.304136   0.000000   0.000000
   13       19.228127     19.228136   0.000000   0.000000
   14       21.440504     21.440524   0.000000   0.000000
   15       22.730734     22.730756   0.000000   0.000000
   16       26.088326     26.088334   0.000000   0.000000
 
  0.2777778E+00  0.1111111E+00  0.3742002E-15  0.9259259E-02
    1       -9.904145     -9.904131   1.000000   1.000000
    2       -8.313651     -8.313636   1.000000   1.000000
    3       -2.060637     -2.060622   1.000000   1.000000
    4       -1.134272     -1.134256   1.000000   1.000000
    5        0.984026      0.984039   1.000000   1.000000
    6        1.032644      1.032662   1.000000   1.000000
    7        1.624109      1.624127   1.000000   1.000000
    8        6.512560      6.512579   1.000000   1.000000
    9       11.821026     11.821043   0.000000   0.000000
   10       14.565162     14.565184   0.000000   0.000000
   11       16.999434     16.999448   0.000000   0.000000
   12       18.682522     18.682539   0.000000   0.000000
   13       19.722974     19.722980   0.000000   0.000000
   14       22.511987     22.512006   0.000000   0.000000
   15       24.505945     24.505968   0.000000   0.000000
   16       24.982221     24.982228   0.000000   0.000000
 
  0.3333333E+00  0.1111111E+00  0.3742002E-15  0.9259259E-02
    1       -8.911975     -8.911961   1.000000   1.000000
    2       -7.402159     -7.402145   1.000000   1.000000
    3       -3.581231     -3.581216   1.000000   1.000000
    4       -2.516178     -2.516162   1.000000   1.000000
    5        0.619124      0.619141   1.000000   1.000000
    6        1.247309      1.247327   1.000000   1.000000
    7        2.134382      2.134396   1.000000   1.000000
    8        6.930203      6.930220   1.000000   1.000000
    9       10.556624     10.556642   0.000000   0.000000
   10       13.312878     13.312899   0.000000   0.000000
   11       16.782122     16.782136   0.000000   0.000000
   12       18.790937     18.790954   0.000000   0.000000
   13       20.502520     20.502527   0.000000   0.000000
   14       23.111746     23.111762   0.000000   0.000000
   15       24.148514     24.148520   0.000000   0.000000
   16       25.719764     25.719776   0.000000   0.000000
 
  0.3888889E+00  0.1111111E+00  0.3742002E-15  0.9259259E-02
    1       -7.797247     -7.797232   1.000000   1.000000
    2       -6.409573     -6.409558   1.000000   1.000000
    3       -4.988324     -4.988309   1.000000   1.000000
    4       -3.846576     -3.846561   1.000000   1.000000
    5        0.371523      0.371540   1.000000   1.000000
    6        1.017255      1.017273   1.000000   1.000000
    7        3.332490      3.332505   1.000000   1.000000
    8        6.565643      6.565659   1.000000   1.000000
    9       10.328482     10.328501   0.000000   0.000000
   10       12.121010     12.121030   0.000000   0.000000
   11       16.639135     16.639149   0.000000   0.000000
   12       18.800511     18.800527   0.000000   0.000000
   13       21.416533     21.416542   0.000000   0.000000
   14       22.980510     22.980523   0.000000   0.000000
   15       23.631887     23.631893   0.000000   0.000000
   16       25.466471     25.466483   0.000000   0.000000
 
  0.4444444E+00  0.1111111E+00  0.3742002E-15  0.4629630E-02
    1       -6.801931     -6.801914   1.000000   1.000000
    2       -6.321706     -6.321696   1.000000   1.000000
    3       -5.191469     -5.191449   1.000000   1.000000
    4       -4.941103     -4.941091   1.000000   1.000000
    5        0.288919      0.288936   1.000000   1.000000
    6        0.939916      0.939933   1.000000   1.000000
    7        4.073577      4.073593   1.000000   1.000000
    8        5.980611      5.980624   1.000000   1.000000
    9       10.923357     10.923379   0.000000   0.000000
   10       11.171428     11.171447   0.000000   0.000000
   11       16.590114     16.590128   0.000000   0.000000
   12       18.797426     18.797442   0.000000   0.000000
   13       22.265182     22.265194   0.000000   0.000000
   14       22.358519     22.358527   0.000000   0.000000
   15       23.456987     23.456993   0.000000   0.000000
   16       25.380464     25.380475   0.000000   0.000000
 
  0.1666667E+00  0.1666667E+00  0.3742002E-15  0.4629630E-02
    1      -10.834142    -10.834128   1.000000   1.000000
    2       -9.171586     -9.171571   1.000000   1.000000
    3       -0.121757     -0.121744   1.000000   1.000000
    4        0.036320      0.036337   1.000000   1.000000
    5        0.436828      0.436844   1.000000   1.000000
    6        1.476808      1.476826   1.000000   1.000000
    7        1.765347      1.765364   1.000000   1.000000
    8        5.795561      5.795580   1.000000   1.000000
    9       13.778290     13.778309   0.000000   0.000000
   10       15.855107     15.855128   0.000000   0.000000
   11       18.244005     18.244017   0.000000   0.000000
   12       18.342042     18.342059   0.000000   0.000000
   13       19.367213     19.367225   0.000000   0.000000
   14       20.846787     20.846806   0.000000   0.000000
   15       21.544377     21.544398   0.000000   0.000000
   16       25.931961     25.931969   0.000000   0.000000
 
  0.2222222E+00  0.1666667E+00  0.3742002E-15  0.9259259E-02
    1      -10.059017    -10.059003   1.000000   1.000000
    2       -8.456603     -8.456588   1.000000   1.000000
    3       -1.224622     -1.224606   1.000000   1.000000
    4       -0.589677     -0.589661   1.000000   1.000000
    5        0.546171      0.546188   1.000000   1.000000
    6        0.805544      0.805557   1.000000   1.000000
    7        1.021662      1.021679   1.000000   1.000000
    8        6.453173      6.453192   1.000000   1.000000
    9       12.296106     12.296124   0.000000   0.000000
   10       14.578917     14.578938   0.000000   0.000000
   11       18.409638     18.409654   0.000000   0.000000
   12       19.107585     19.107598   0.000000   0.000000
   13       20.060268     20.060280   0.000000   0.000000
   14       21.320635     21.320654   0.000000   0.000000
   15       22.684870     22.684890   0.000000   0.000000
   16       24.624472     24.624479   0.000000   0.000000
 
  0.2777778E+00  0.1666667E+00  0.3742002E-15  0.9259259E-02
    1       -9.140957     -9.140943   1.000000   1.000000
    2       -7.611886     -7.611871   1.000000   1.000000
    3       -2.660141     -2.660126   1.000000   1.000000
    4       -1.756359     -1.756343   1.000000   1.000000
    5       -0.131471     -0.131454   1.000000   1.000000
    6        0.524242      0.524259   1.000000   1.000000
    7        1.886874      1.886888   1.000000   1.000000
    8        7.066720      7.066738   1.000000   1.000000
    9       10.864096     10.864114   0.000000   0.000000
   10       13.388389     13.388409   0.000000   0.000000
   11       18.240297     18.240312   0.000000   0.000000
   12       19.831400     19.831416   0.000000   0.000000
   13       20.574394     20.574402   0.000000   0.000000
   14       21.996302     21.996321   0.000000   0.000000
   15       23.569850     23.569857   0.000000   0.000000
   16       24.367004     24.367025   0.000000   0.000000
 
  0.3333333E+00  0.1666667E+00  0.3742002E-15  0.9259259E-02
    1       -8.091887     -8.091873   1.000000   1.000000
    2       -6.656416     -6.656401   1.000000   1.000000
    3       -4.088363     -4.088348   1.000000   1.000000
    4       -3.023393     -3.023377   1.000000   1.000000
    5       -0.528686     -0.528670   1.000000   1.000000
    6        0.201737      0.201754   1.000000   1.000000
    7        3.075777      3.075792   1.000000   1.000000
    8        7.194190      7.194207   1.000000   1.000000
    9       10.024509     10.024527   0.000000   0.000000
   10       12.278753     12.278774   0.000000   0.000000
   11       18.066429     18.066444   0.000000   0.000000
   12       20.174230     20.174248   0.000000   0.000000
   13       21.175398     21.175405   0.000000   0.000000
   14       22.561820     22.561837   0.000000   0.000000
   15       22.819881     22.819888   0.000000   0.000000
   16       24.521337     24.521347   0.000000   0.000000
 
  0.3888889E+00  0.1666667E+00  0.3742002E-15  0.9259259E-02
    1       -6.953911     -6.953896   1.000000   1.000000
    2       -5.849209     -5.849196   1.000000   1.000000
    3       -5.177187     -5.177170   1.000000   1.000000
    4       -4.255923     -4.255908   1.000000   1.000000
    5       -0.715323     -0.715307   1.000000   1.000000
    6        0.041519      0.041536   1.000000   1.000000
    7        4.178949      4.178965   1.000000   1.000000
    8        6.501830      6.501844   1.000000   1.000000
    9       10.292761     10.292779   0.000000   0.000000
   10       11.280413     11.280435   0.000000   0.000000
   11       17.968520     17.968535   0.000000   0.000000
   12       20.231287     20.231304   0.000000   0.000000
   13       21.932639     21.932649   0.000000   0.000000
   14       22.428725     22.428731   0.000000   0.000000
   15       22.522039     22.522051   0.000000   0.000000
   16       24.291454     24.291465   0.000000   0.000000
 
  0.2222222E+00  0.2222222E+00  0.3742002E-15  0.4629630E-02