       N       E                     dE             d eps       ncg     rms          rms(c)
DAV:   1    -0.309809205783E+03   -0.30981E+03   -0.12067E+04 10632   0.828E+02
DAV:   2    -0.373415336479E+03   -0.63606E+02   -0.57994E+02 10248   0.215E+02
DAV:   3    -0.376253428409E+03   -0.28381E+01   -0.28131E+01  9000   0.444E+01
DAV:   4    -0.376360508406E+03   -0.10708E+00   -0.10705E+00 10296   0.823E+00
DAV:   5    -0.376362043256E+03   -0.15348E-02   -0.15350E-02  9184   0.837E-01    0.496E+01
DAV:   6    -0.177896888841E+03    0.19847E+03   -0.48649E+01  7104   0.452E+01    0.296E+01
DAV:   7    -0.380579364248E+02    0.13984E+03   -0.20988E+02  9152   0.774E+01    0.104E+01
DAV:   8    -0.380100700183E+02    0.47866E-01   -0.71507E+00  9200   0.165E+01    0.426E+00
DAV:   9    -0.368384570266E+02    0.11716E+01   -0.19848E+00  9160   0.854E+00    0.109E+00
DAV:  10    -0.368630312341E+02   -0.24574E-01   -0.15120E-01  7672   0.306E+00    0.445E-01
DAV:  11    -0.368876228768E+02   -0.24592E-01   -0.79248E-02  7360   0.222E+00    0.344E-01
DAV:  12    -0.369112402150E+02   -0.23617E-01   -0.11879E-02  7368   0.102E+00    0.158E-01
DAV:  13    -0.369114006627E+02   -0.16045E-03   -0.32405E-03  8080   0.415E-01    0.430E-02
DAV:  14    -0.369116144769E+02   -0.21381E-03   -0.38805E-04  8168   0.154E-01    0.240E-02
DAV:  15    -0.369116488888E+02   -0.34412E-04   -0.25859E-05  8104   0.429E-02    0.164E-02
DAV:  16    -0.369116812692E+02   -0.32380E-04   -0.31780E-05  7464   0.436E-02    0.361E-03
DAV:  17    -0.369116840100E+02   -0.27408E-05   -0.52861E-06  8352   0.145E-02    0.165E-03
DAV:  18    -0.369116842080E+02   -0.19802E-06   -0.32162E-07  6104   0.467E-03
   1 F= -.24073709E+02 E0= -.24073709E+02  d E =-.240737E+02  mag=     0.0000
       N       E                     dE             d eps       ncg     rms          rms(c)
DAV:   1    -0.369132279928E+02   -0.15440E-02   -0.11015E-01  7912   0.255E+00    0.272E-01
DAV:   2    -0.369112896377E+02    0.19384E-02   -0.25740E-03  9032   0.319E-01    0.142E-01
DAV:   3    -0.369105808001E+02    0.70884E-03   -0.15949E-03  8480   0.237E-01    0.122E-02
DAV:   4    -0.369105838139E+02   -0.30139E-05   -0.34504E-05  8440   0.383E-02    0.610E-03
DAV:   5    -0.369105848940E+02   -0.10800E-05   -0.14309E-06  7688   0.105E-02    0.654E-04
DAV:   6    -0.369105848927E+02    0.12608E-08   -0.59053E-08  5608   0.201E-03
   2 F= -.24256034E+02 E0= -.24256034E+02  d E =-.182325E+00  mag=     0.0000
       N       E                     dE             d eps       ncg     rms          rms(c)
DAV:   1    -0.368480368952E+02    0.62548E-01   -0.10175E+00  7920   0.788E+00    0.830E-01
DAV:   2    -0.368301776115E+02    0.17859E-01   -0.24399E-02  8896   0.990E-01    0.434E-01
DAV:   3    -0.368236389989E+02    0.65386E-02   -0.14567E-02  8384   0.727E-01    0.378E-02
DAV:   4    -0.368236554679E+02   -0.16469E-04   -0.32756E-04  8432   0.118E-01    0.190E-02
DAV:   5    -0.368236556920E+02   -0.22411E-06   -0.12830E-05  7720   0.320E-02    0.185E-03
DAV:   6    -0.368236558759E+02   -0.18391E-06   -0.40703E-07  7512   0.489E-03
   3 F= -.24708878E+02 E0= -.24708878E+02  d E =-.635169E+00  mag=     0.0000
       N       E                     dE             d eps       ncg     rms          rms(c)
DAV:   1    -0.363328763509E+02    0.49078E+00   -0.42806E+00  7888   0.167E+01    0.171E+00
DAV:   2    -0.362583323780E+02    0.74544E-01   -0.10651E-01  8752   0.211E+00    0.892E-01
DAV:   3    -0.362311356907E+02    0.27197E-01   -0.59722E-02  8256   0.151E+00    0.803E-02
DAV:   4    -0.362311774894E+02   -0.41799E-04   -0.14733E-03  8552   0.252E-01    0.408E-02
DAV:   5    -0.362311617390E+02    0.15750E-04   -0.52663E-05  7704   0.670E-02    0.405E-03
DAV:   6    -0.362311628754E+02   -0.11364E-05   -0.19730E-06  9096   0.107E-02    0.259E-03
DAV:   7    -0.362311632215E+02   -0.34610E-06   -0.37545E-07  5888   0.474E-03
   4 F= -.25149444E+02 E0= -.25149444E+02  d E =-.107574E+01  mag=     0.0000
       N       E                     dE             d eps       ncg     rms          rms(c)
DAV:   1    -0.360892655855E+02    0.14190E+00   -0.98881E-02  7840   0.254E+00    0.258E-01
DAV:   2    -0.360875225844E+02    0.17430E-02   -0.23879E-03  8672   0.320E-01    0.135E-01
DAV:   3    -0.360868861790E+02    0.63641E-03   -0.14104E-03  8288   0.233E-01    0.122E-02
DAV:   4    -0.360868889585E+02   -0.27795E-05   -0.35793E-05  8432   0.393E-02    0.636E-03
DAV:   5    -0.360868903413E+02   -0.13828E-05   -0.13569E-06  7624   0.108E-02    0.758E-04
DAV:   6    -0.360868904048E+02   -0.63519E-07   -0.39947E-08  4680   0.164E-03
   5 F= -.25156837E+02 E0= -.25156837E+02  d E =-.108313E+01  mag=     0.0000
       N       E                     dE             d eps       ncg     rms          rms(c)
DAV:   1    -0.361662901908E+02   -0.79400E-01   -0.14001E+00  7232   0.810E+00    0.849E-01
DAV:   2    -0.361332588540E+02    0.33031E-01   -0.41719E-02  7640   0.133E+00    0.473E-01
DAV:   3    -0.361190972609E+02    0.14162E-01   -0.34989E-02  8320   0.117E+00    0.860E-02
DAV:   4    -0.361191396455E+02   -0.42385E-04   -0.14360E-03  8296   0.240E-01    0.601E-02
DAV:   5    -0.361191141278E+02    0.25518E-04   -0.14699E-04  7800   0.970E-02    0.771E-03
DAV:   6    -0.361191188257E+02   -0.46979E-05   -0.57147E-06  9136   0.176E-02    0.626E-03
DAV:   7    -0.361191216861E+02   -0.28604E-05   -0.22118E-06  7664   0.979E-03    0.155E-03
DAV:   8    -0.361191222378E+02   -0.55173E-06   -0.23798E-07  5816   0.395E-03
   6 F= -.25349249E+02 E0= -.25349249E+02  d E =-.192411E+00  mag=     0.0000
       N       E                     dE             d eps       ncg     rms          rms(c)
DAV:   1    -0.366335683559E+02   -0.51445E+00   -0.13281E+01  7136   0.254E+01    0.265E+00
DAV:   2    -0.363272534490E+02    0.30631E+00   -0.39954E-01  7624   0.417E+00    0.146E+00
DAV:   3    -0.362002330611E+02    0.12702E+00   -0.29490E-01  8128   0.347E+00    0.232E-01
DAV:   4    -0.362006317149E+02   -0.39865E-03   -0.13175E-02  8176   0.724E-01    0.132E-01
DAV:   5    -0.362004850143E+02    0.14670E-03   -0.87621E-04  7952   0.241E-01    0.163E-02
DAV:   6    -0.362004916801E+02   -0.66657E-05   -0.21802E-05  9144   0.338E-02    0.106E-02
DAV:   7    -0.362005054476E+02   -0.13768E-04   -0.92290E-06  7456   0.201E-02    0.523E-03
DAV:   8    -0.362005091528E+02   -0.37052E-05   -0.21513E-06  7968   0.121E-02    0.714E-04
DAV:   9    -0.362005091798E+02   -0.27002E-07   -0.55327E-08  4720   0.167E-03
   7 F= -.25915645E+02 E0= -.25915645E+02  d E =-.758808E+00  mag=     0.0000
       N       E                     dE             d eps       ncg     rms          rms(c)
DAV:   1    -0.380612034002E+02   -0.18607E+01   -0.59953E+01  7104   0.564E+01    0.576E+00
DAV:   2    -0.367884512380E+02    0.12728E+01   -0.19029E+00  7688   0.936E+00    0.314E+00
DAV:   3    -0.362629715218E+02    0.52548E+00   -0.10969E+00  8176   0.700E+00    0.424E-01
DAV:   4    -0.362640188631E+02   -0.10473E-02   -0.53521E-02  8376   0.145E+00    0.200E-01
DAV:   5    -0.362631534540E+02    0.86541E-03   -0.22367E-03  8384   0.383E-01    0.297E-02
DAV:   6    -0.362631405954E+02    0.12859E-04   -0.91221E-05  8776   0.651E-02    0.172E-02
DAV:   7    -0.362631670719E+02   -0.26477E-04   -0.24698E-05  7712   0.379E-02    0.386E-03
DAV:   8    -0.362631668797E+02    0.19225E-06   -0.81559E-07  7456   0.696E-03
   8 F= -.26968547E+02 E0= -.26968547E+02  d E =-.181171E+01  mag=    -0.0000
       N       E                     dE             d eps       ncg     rms          rms(c)
DAV:   1    -0.411198771435E+02   -0.48567E+01   -0.32118E+02  7104   0.146E+02    0.136E+01
DAV:   2    -0.370962672847E+02    0.40236E+01   -0.12511E+01 10040   0.262E+01    0.766E+00
DAV:   3    -0.348852034790E+02    0.22111E+01   -0.53558E+00  8912   0.156E+01    0.962E-01
DAV:   4    -0.348752687838E+02    0.99347E-02   -0.23298E-01  8496   0.336E+00    0.470E-01
DAV:   5    -0.348670335431E+02    0.82352E-02   -0.98338E-03  8928   0.735E-01    0.885E-02
DAV:   6    -0.348667057845E+02    0.32776E-03   -0.12703E-03  8968   0.246E-01    0.263E-02
DAV:   7    -0.348667220184E+02   -0.16234E-04   -0.44102E-05  8560   0.479E-02    0.156E-02
DAV:   8    -0.348667193337E+02    0.26848E-05   -0.58306E-06  8792   0.178E-02    0.218E-03
DAV:   9    -0.348667193914E+02   -0.57675E-07   -0.33076E-07  4376   0.456E-03
   9 F= -.27634407E+02 E0= -.27634407E+02  d E =-.247757E+01  mag=    -0.0000
       N       E                     dE             d eps       ncg     rms          rms(c)
DAV:   1    -0.379134159644E+02   -0.30467E+01   -0.66314E+01  7424   0.550E+01    0.582E+00
DAV:   2    -0.365286672339E+02    0.13847E+01   -0.19872E+00  9208   0.952E+00    0.332E+00
DAV:   3    -0.359114850280E+02    0.61718E+00   -0.13833E+00  8880   0.784E+00    0.575E-01
DAV:   4    -0.359100535502E+02    0.14315E-02   -0.66871E-02  8640   0.162E+00    0.396E-01
DAV:   5    -0.359070976316E+02    0.29559E-02   -0.30142E-03  8680   0.422E-01    0.154E-01
DAV:   6    -0.359064709423E+02    0.62669E-03   -0.14711E-03  8672   0.289E-01    0.287E-02
DAV:   7    -0.359065162466E+02   -0.45304E-04   -0.13280E-04  9288   0.908E-02    0.334E-02
DAV:   8    -0.359064905254E+02    0.25721E-04   -0.36970E-05  8352   0.424E-02    0.400E-03
DAV:   9    -0.359064904598E+02    0.65583E-07   -0.31676E-06  9152   0.134E-02
  10 F= -.27803931E+02 E0= -.27803931E+02  d E =-.264709E+01  mag=     0.0000
       N       E                     dE             d eps       ncg     rms          rms(c)
DAV:   1    -0.358465887787E+02    0.59902E-01   -0.53278E+00  7520   0.168E+01    0.173E+00
DAV:   2    -0.357440465765E+02    0.10254E+00   -0.15902E-01  9200   0.279E+00    0.963E-01
DAV:   3    -0.356988549082E+02    0.45192E-01   -0.96577E-02  8832   0.211E+00    0.130E-01
DAV:   4    -0.356986952991E+02    0.15961E-03   -0.35455E-03  8856   0.410E-01    0.648E-02
DAV:   5    -0.356985866159E+02    0.10868E-03   -0.19101E-04  8672   0.111E-01    0.871E-03
DAV:   6    -0.356985855861E+02    0.10298E-05   -0.57557E-06  9104   0.171E-02    0.356E-03
DAV:   7    -0.356985866215E+02   -0.10354E-05   -0.55410E-07  5176   0.673E-03    0.149E-03
DAV:   8    -0.356985868233E+02   -0.20180E-06   -0.51273E-08  3952   0.194E-03
  11 F= -.27854586E+02 E0= -.27854586E+02  d E =-.269775E+01  mag=     0.0000
       N       E                     dE             d eps       ncg     rms          rms(c)
DAV:   1    -0.356492526945E+02    0.49334E-01   -0.28629E-01  7504   0.384E+00    0.399E-01
DAV:   2    -0.356436530964E+02    0.55996E-02   -0.81276E-03  9328   0.631E-01    0.222E-01
DAV:   3    -0.356412048928E+02    0.24482E-02   -0.51485E-03  8832   0.486E-01    0.298E-02
DAV:   4    -0.356412002007E+02    0.46922E-05   -0.17864E-04  8880   0.922E-02    0.163E-02
DAV:   5    -0.356411950836E+02    0.51171E-05   -0.11273E-05  8472   0.268E-02    0.216E-03
DAV:   6    -0.356411950213E+02    0.62305E-07   -0.41248E-07  5032   0.482E-03
  12 F= -.27856131E+02 E0= -.27856131E+02  d E =-.269929E+01  mag=     0.0000
       N       E                     dE             d eps       ncg     rms          rms(c)
DAV:   1    -0.358205419776E+02   -0.17935E+00   -0.21472E-01  8560   0.394E+00    0.362E-01
DAV:   2    -0.358182591406E+02    0.22828E-02   -0.40638E-03  8784   0.436E-01    0.200E-01
DAV:   3    -0.358172366134E+02    0.10225E-02   -0.15338E-03  8520   0.260E-01    0.172E-02
DAV:   4    -0.358172227257E+02    0.13888E-04   -0.43522E-05  8352   0.454E-02    0.774E-03
DAV:   5    -0.358172186512E+02    0.40745E-05   -0.12361E-06  7024   0.970E-03    0.132E-03
DAV:   6    -0.358172184808E+02    0.17041E-06   -0.18165E-07  3928   0.385E-03
  13 F= -.27861784E+02 E0= -.27861784E+02  d E =-.565340E-02  mag=     0.0000
       N       E                     dE             d eps       ncg     rms          rms(c)
DAV:   1    -0.357563564370E+02    0.60862E-01   -0.30770E-02  8504   0.150E+00    0.137E-01
DAV:   2    -0.357560287581E+02    0.32768E-03   -0.61110E-04  8752   0.167E-01    0.756E-02
DAV:   3    -0.357558846597E+02    0.14410E-03   -0.21537E-04  8464   0.977E-02    0.664E-03
DAV:   4    -0.357558853064E+02   -0.64670E-06   -0.60446E-06  8320   0.170E-02
  14 F= -.27864944E+02 E0= -.27864944E+02  d E =-.881326E-02  mag=     0.0000
