PROCAR lm decomposed
# of k-points:  111         # of bands:   16         # of ions:    4

 k-point     1 :    0.00000000 0.00000000 0.00000000     weight = 0.00077160

band     1 # energy  -12.96436631 # occ.  1.00000000
 
ion      s     py     pz     px    dxy    dyz    dz2    dxz  x2-y2    tot
    1  0.158  0.000  0.000  0.000  0.000  0.000  0.000  0.000  0.000  0.158
    2  0.158  0.000  0.000  0.000  0.000  0.000  0.000  0.000  0.000  0.158
    3  0.156  0.000  0.000  0.000  0.000  0.000  0.000  0.000  0.000  0.156
    4  0.156  0.000  0.000  0.000  0.000  0.000  0.000  0.000  0.000  0.156
tot    0.629  0.000  0.000  0.000  0.000  0.000  0.000  0.000  0.000  0.629
 
band     2 # energy  -11.13867340 # occ.  1.00000000
 
ion      s     py     pz     px    dxy    dyz    dz2    dxz  x2-y2    tot
    1  0.179  0.000  0.000  0.000  0.000  0.000  0.000  0.000  0.000  0.179
    2  0.179  0.000  0.000  0.000  0.000  0.000  0.000  0.000  0.000  0.179
    3  0.179  0.000  0.000  0.000  0.000  0.000  0.000  0.000  0.000  0.179
    4  0.179  0.000  0.000  0.000  0.000  0.000  0.000  0.000  0.000  0.179
tot    0.717  0.000  0.000  0.000  0.000  0.000  0.000  0.000  0.000  0.717
 
band     3 # energy   -2.70186411 # occ.  1.00000000
 
ion      s     py     pz     px    dxy    dyz    dz2    dxz  x2-y2    tot
    1  0.000  0.000  0.099  0.000  0.000  0.000  0.000  0.000  0.000  0.099
    2  0.000  0.000  0.099  0.000  0.000  0.000  0.000  0.000  0.000  0.099
    3  0.000  0.000  0.095  0.000  0.000  0.000  0.000  0.000  0.000  0.095
    4  0.000  0.000  0.095  0.000  0.000  0.000  0.000  0.000  0.000  0.095
tot    0.000  0.000  0.387  0.000  0.000  0.000  0.000  0.000  0.000  0.387
 
band     4 # energy    3.73333550 # occ.  1.00000000
 
ion      s     py     pz     px    dxy    dyz    dz2    dxz  x2-y2    tot
    1  0.000  0.000  0.154  0.000  0.000  0.000  0.000  0.000  0.000  0.154
    2  0.000  0.000  0.154  0.000  0.000  0.000  0.000  0.000  0.000  0.154
    3  0.000  0.000  0.158  0.000  0.000  0.000  0.000  0.000  0.000  0.158
    4  0.000  0.000  0.158  0.000  0.000  0.000  0.000  0.000  0.000  0.158
tot    0.000  0.000  0.622  0.000  0.000  0.000  0.000  0.000  0.000  0.622
 
band     5 # energy    5.12312435 # occ.  1.00000000
 
ion      s     py     pz     px    dxy    dyz    dz2    dxz  x2-y2    tot
    1  0.000  0.054  0.000  0.166  0.000  0.000  0.000  0.000  0.000  0.219
    2  0.000  0.054  0.000  0.166  0.000  0.000  0.000  0.000  0.000  0.219
    3  0.000  0.051  0.000  0.157  0.000  0.000  0.000  0.000  0.000  0.208
    4  0.000  0.051  0.000  0.157  0.000  0.000  0.000  0.000  0.000  0.208
tot    0.000  0.209  0.000  0.645  0.000  0.000  0.000  0.000  0.000  0.854
 
band     6 # energy    5.12318381 # occ.  1.00000000
 
ion      s     py     pz     px    dxy    dyz    dz2    dxz  x2-y2    tot
    1  0.000  0.166  0.000  0.054  0.000  0.000  0.000  0.000  0.000  0.219
    2  0.000  0.166  0.000  0.054  0.000  0.000  0.000  0.000  0.000  0.219
    3  0.000  0.157  0.000  0.051  0.000  0.000  0.000  0.000  0.000  0.208
    4  0.000  0.157  0.000  0.051  0.000  0.000  0.000  0.000  0.000  0.208
tot    0.000  0.645  0.000  0.209  0.000  0.000  0.000  0.000  0.000  0.854
 
band     7 # energy    5.32598394 # occ.  1.00000000
 
ion      s     py     pz     px    dxy    dyz    dz2    dxz  x2-y2    tot
    1  0.000  0.052  0.000  0.162  0.000  0.000  0.000  0.000  0.000  0.213
    2  0.000  0.052  0.000  0.162  0.000  0.000  0.000  0.000  0.000  0.213
    3  0.000  0.053  0.000  0.166  0.000  0.000  0.000  0.000  0.000  0.219
    4  0.000  0.053  0.000  0.166  0.000  0.000  0.000  0.000  0.000  0.219
tot    0.000  0.210  0.000  0.655  0.000  0.000  0.000  0.000  0.000  0.865
 
band     8 # energy    5.32604208 # occ.  1.00000000
 
ion      s     py     pz     px    dxy    dyz    dz2    dxz  x2-y2    tot
    1  0.000  0.162  0.000  0.052  0.000  0.000  0.000  0.000  0.000  0.213
    2  0.000  0.162  0.000  0.052  0.000  0.000  0.000  0.000  0.000  0.213
    3  0.000  0.166  0.000  0.053  0.000  0.000  0.000  0.000  0.000  0.219
    4  0.000  0.166  0.000  0.053  0.000  0.000  0.000  0.000  0.000  0.219
tot    0.000  0.655  0.000  0.210  0.000  0.000  0.000  0.000  0.000  0.865
 
band     9 # energy   16.43691912 # occ.  0.00000000
 
ion      s     py     pz     px    dxy    dyz    dz2    dxz  x2-y2    tot
    1  0.034  0.000  0.000  0.000  0.000  0.000  0.000  0.000  0.000  0.034
    2  0.034  0.000  0.000  0.000  0.000  0.000  0.000  0.000  0.000  0.034
    3  0.039  0.000  0.000  0.000  0.000  0.000  0.000  0.000  0.000  0.039
    4  0.039  0.000  0.000  0.000  0.000  0.000  0.000  0.000  0.000  0.039
tot    0.148  0.000  0.000  0.000  0.000  0.000  0.000  0.000  0.000  0.148
 
band    10 # energy   16.88077317 # occ.  0.00000000
 
ion      s     py     pz     px    dxy    dyz    dz2    dxz  x2-y2    tot
    1  0.000  0.115  0.000  0.023  0.000  0.000  0.000  0.000  0.000  0.138
    2  0.000  0.115  0.000  0.023  0.000  0.000  0.000  0.000  0.000  0.138
    3  0.000  0.099  0.000  0.020  0.000  0.000  0.000  0.000  0.000  0.119
    4  0.000  0.099  0.000  0.020  0.000  0.000  0.000  0.000  0.000  0.119
tot    0.000  0.428  0.000  0.087  0.000  0.000  0.000  0.000  0.000  0.514
 
band    11 # energy   16.88083540 # occ.  0.00000000
 
ion      s     py     pz     px    dxy    dyz    dz2    dxz  x2-y2    tot
    1  0.000  0.023  0.000  0.115  0.000  0.000  0.000  0.000  0.000  0.138
    2  0.000  0.023  0.000  0.115  0.000  0.000  0.000  0.000  0.000  0.138
    3  0.000  0.020  0.000  0.099  0.000  0.000  0.000  0.000  0.000  0.119
    4  0.000  0.020  0.000  0.099  0.000  0.000  0.000  0.000  0.000  0.119
tot    0.000  0.087  0.000  0.428  0.000  0.000  0.000  0.000  0.000  0.514
 
band    12 # energy   17.27982377 # occ.  0.00000000
 
ion      s     py     pz     px    dxy    dyz    dz2    dxz  x2-y2    tot
    1  0.000  0.100  0.000  0.021  0.000  0.000  0.000  0.000  0.000  0.122
    2  0.000  0.100  0.000  0.021  0.000  0.000  0.000  0.000  0.000  0.122
    3  0.000  0.120  0.000  0.025  0.000  0.000  0.000  0.000  0.000  0.145
    4  0.000  0.120  0.000  0.025  0.000  0.000  0.000  0.000  0.000  0.145
tot    0.000  0.440  0.000  0.093  0.000  0.000  0.000  0.000  0.000  0.533
 
band    13 # energy   17.27989058 # occ.  0.00000000
 
ion      s     py     pz     px    dxy    dyz    dz2    dxz  x2-y2    tot
    1  0.000  0.021  0.000  0.100  0.000  0.000  0.000  0.000  0.000  0.122
    2  0.000  0.021  0.000  0.100  0.000  0.000  0.000  0.000  0.000  0.122
    3  0.000  0.025  0.000  0.120  0.000  0.000  0.000  0.000  0.000  0.145
    4  0.000  0.025  0.000  0.120  0.000  0.000  0.000  0.000  0.000  0.145
tot    0.000  0.093  0.000  0.440  0.000  0.000  0.000  0.000  0.000  0.533
 
band    14 # energy   19.87847099 # occ.  0.00000000
 
ion      s     py     pz     px    dxy    dyz    dz2    dxz  x2-y2    tot
    1  0.000  0.000  0.200  0.000  0.000  0.000  0.000  0.000  0.000  0.200
    2  0.000  0.000  0.200  0.000  0.000  0.000  0.000  0.000  0.000  0.200
    3  0.000  0.000  0.174  0.000  0.000  0.000  0.000  0.000  0.000  0.174
    4  0.000  0.000  0.174  0.000  0.000  0.000  0.000  0.000  0.000  0.174
tot    0.000  0.000  0.749  0.000  0.000  0.000  0.000  0.000  0.000  0.749
 
band    15 # energy   21.25546850 # occ.  0.00000000
 
ion      s     py     pz     px    dxy    dyz    dz2    dxz  x2-y2    tot
    1  0.000  0.000  0.203  0.000  0.000  0.000  0.000  0.000  0.000  0.203
    2  0.000  0.000  0.203  0.000  0.000  0.000  0.000  0.000  0.000  0.203
    3  0.000  0.000  0.202  0.000  0.000  0.000  0.000  0.000  0.000  0.202
    4  0.000  0.000  0.202  0.000  0.000  0.000  0.000  0.000  0.000  0.202
tot    0.000  0.000  0.810  0.000  0.000  0.000  0.000  0.000  0.000  0.810
 
band    16 # energy   21.83293729 # occ.  0.00000000
 
ion      s     py     pz     px    dxy    dyz    dz2    dxz  x2-y2    tot
    1  0.179  0.000  0.000  0.000  0.000  0.000  0.000  0.000  0.000  0.179
    2  0.179  0.000  0.000  0.000  0.000  0.000  0.000  0.000  0.000  0.179
    3  0.151  0.000  0.000  0.000  0.000  0.000  0.000  0.000  0.000  0.151
    4  0.151  0.000  0.000  0.000  0.000  0.000  0.000  0.000  0.000  0.151
tot    0.659  0.000  0.000  0.000  0.000  0.000  0.000  0.000  0.000  0.659
 

 k-point     2 :    0.05555556 0.00000000 0.00000000     weight = 0.00462963

band     1 # energy  -12.88465294 # occ.  1.00000000
 
ion      s     py     pz     px    dxy    dyz    dz2    dxz  x2-y2    tot
    1  0.158  0.000  0.000  0.001  0.000  0.000  0.000  0.000  0.000  0.158
    2  0.158  0.000  0.000  0.001  0.000  0.000  0.000  0.000  0.000  0.158
    3  0.156  0.000  0.000  0.001  0.000  0.000  0.000  0.000  0.000  0.157
    4  0.156  0.000  0.000  0.001  0.000  0.000  0.000  0.000  0.000  0.157
tot    0.627  0.001  0.000  0.002  0.000  0.000  0.000  0.000  0.000  0.630
 
band     2 # energy  -11.06501880 # occ.  1.00000000
 
ion      s     py     pz     px    dxy    dyz    dz2    dxz  x2-y2    tot
    1  0.179  0.000  0.000  0.001  0.000  0.000  0.000  0.000  0.000  0.180
    2  0.179  0.000  0.000  0.001  0.000  0.000  0.000  0.000  0.000  0.180
    3  0.178  0.000  0.000  0.001  0.000  0.000  0.000  0.000  0.000  0.179
    4  0.178  0.000  0.000  0.001  0.000  0.000  0.000  0.000  0.000  0.179
tot    0.714  0.001  0.000  0.003  0.000  0.000  0.000  0.000  0.000  0.717
 
band     3 # energy   -2.60467615 # occ.  1.00000000
 
ion      s     py     pz     px    dxy    dyz    dz2    dxz  x2-y2    tot
    1  0.000  0.000  0.099  0.000  0.000  0.000  0.000  0.000  0.000  0.099
    2  0.000  0.000  0.099  0.000  0.000  0.000  0.000  0.000  0.000  0.099
    3  0.000  0.000  0.095  0.000  0.000  0.000  0.000  0.000  0.000  0.095
    4  0.000  0.000  0.095  0.000  0.000  0.000  0.000  0.000  0.000  0.095
tot    0.000  0.000  0.388  0.000  0.000  0.000  0.000  0.000  0.000  0.388
 
band     4 # energy    3.81494373 # occ.  1.00000000
 
ion      s     py     pz     px    dxy    dyz    dz2    dxz  x2-y2    tot
    1  0.000  0.000  0.153  0.000  0.000  0.000  0.000  0.000  0.000  0.153
    2  0.000  0.000  0.153  0.000  0.000  0.000  0.000  0.000  0.000  0.153
    3  0.000  0.000  0.158  0.000  0.000  0.000  0.000  0.000  0.000  0.158
    4  0.000  0.000  0.158  0.000  0.000  0.000  0.000  0.000  0.000  0.158
tot    0.000  0.000  0.623  0.000  0.000  0.000  0.000  0.000  0.000  0.623
 
band     5 # energy    4.78224903 # occ.  1.00000000
 
ion      s     py     pz     px    dxy    dyz    dz2    dxz  x2-y2    tot
    1  0.004  0.053  0.000  0.159  0.000  0.000  0.000  0.000  0.000  0.216
    2  0.004  0.053  0.000  0.159  0.000  0.000  0.000  0.000  0.000  0.216
    3  0.004  0.051  0.000  0.152  0.000  0.000  0.000  0.000  0.000  0.207
    4  0.004  0.051  0.000  0.152  0.000  0.000  0.000  0.000  0.000  0.207
tot    0.017  0.207  0.000  0.622  0.000  0.000  0.000  0.000  0.000  0.845
 
band     6 # energy    4.92890028 # occ.  1.00000000
 
ion      s     py     pz     px    dxy    dyz    dz2    dxz  x2-y2    tot
    1  0.000  0.162  0.000  0.054  0.000  0.000  0.000  0.000  0.000  0.216
    2  0.000  0.162  0.000  0.054  0.000  0.000  0.000  0.000  0.000  0.216
    3  0.000  0.156  0.000  0.052  0.000  0.000  0.000  0.000  0.000  0.208
    4  0.000  0.156  0.000  0.052  0.000  0.000  0.000  0.000  0.000  0.208
tot    0.000  0.636  0.000  0.212  0.000  0.000  0.000  0.000  0.000  0.848
 
band     7 # energy    5.04560622 # occ.  1.00000000
 
ion      s     py     pz     px    dxy    dyz    dz2    dxz  x2-y2    tot
    1  0.004  0.052  0.000  0.157  0.000  0.000  0.000  0.000  0.000  0.213
    2  0.004  0.052  0.000  0.157  0.000  0.000  0.000  0.000  0.000  0.213
    3  0.004  0.053  0.000  0.160  0.000  0.000  0.000  0.000  0.000  0.217
    4  0.004  0.053  0.000  0.160  0.000  0.000  0.000  0.000  0.000  0.217
tot    0.016  0.211  0.000  0.634  0.000  0.000  0.000  0.000  0.000  0.861
 
band     8 # energy    5.17671549 # occ.  1.00000000
 
ion      s     py     pz     px    dxy    dyz    dz2    dxz  x2-y2    tot
    1  0.000  0.161  0.000  0.053  0.000  0.000  0.000  0.000  0.000  0.214
    2  0.000  0.161  0.000  0.053  0.000  0.000  0.000  0.000  0.000  0.214
    3  0.000  0.163  0.000  0.054  0.000  0.000  0.000  0.000  0.000  0.217
    4  0.000  0.163  0.000  0.054  0.000  0.000  0.000  0.000  0.000  0.217
tot    0.000  0.647  0.000  0.216  0.000  0.000  0.000  0.000  0.000  0.863
 
band     9 # energy   16.46981272 # occ.  0.00000000
 
ion      s     py     pz     px    dxy    dyz    dz2    dxz  x2-y2    tot
    1  0.028  0.003  0.000  0.008  0.000  0.000  0.000  0.000  0.000  0.038
    2  0.028  0.003  0.000  0.008  0.000  0.000  0.000  0.000  0.000  0.038
    3  0.034  0.003  0.000  0.009  0.000  0.000  0.000  0.000  0.000  0.046
    4  0.034  0.003  0.000  0.009  0.000  0.000  0.000  0.000  0.000  0.046
tot    0.123  0.011  0.000  0.034  0.000  0.000  0.000  0.000  0.000  0.168
 
band    10 # energy   16.90227381 # occ.  0.00000000
 
ion      s     py     pz     px    dxy    dyz    dz2    dxz  x2-y2    tot
    1  0.003  0.033  0.000  0.100  0.000  0.000  0.000  0.000  0.000  0.136
    2  0.003  0.033  0.000  0.100  0.000  0.000  0.000  0.000  0.000  0.136
    3  0.003  0.028  0.000  0.085  0.000  0.000  0.000  0.000  0.000  0.116
    4  0.003  0.028  0.000  0.085  0.000  0.000  0.000  0.000  0.000  0.116
tot    0.012  0.123  0.000  0.369  0.000  0.000  0.000  0.000  0.000  0.504
 
band    11 # energy   17.22321896 # occ.  0.00000000
 
ion      s     py     pz     px    dxy    dyz    dz2    dxz  x2-y2    tot
    1  0.000  0.104  0.000  0.035  0.000  0.000  0.000  0.000  0.000  0.138
    2  0.000  0.104  0.000  0.035  0.000  0.000  0.000  0.000  0.000  0.138
    3  0.000  0.091  0.000  0.030  0.000  0.000  0.000  0.000  0.000  0.121
    4  0.000  0.091  0.000  0.030  0.000  0.000  0.000  0.000  0.000  0.121
tot    0.000  0.390  0.000  0.130  0.000  0.000  0.000  0.000  0.000  0.519
 
band    12 # energy   17.39138412 # occ.  0.00000000
 
ion      s     py     pz     px    dxy    dyz    dz2    dxz  x2-y2    tot
    1  0.010  0.027  0.000  0.081  0.000  0.000  0.000  0.000  0.000  0.117
    2  0.010  0.027  0.000  0.081  0.000  0.000  0.000  0.000  0.000  0.117
    3  0.007  0.033  0.000  0.099  0.000  0.000  0.000  0.000  0.000  0.138
    4  0.007  0.033  0.000  0.099  0.000  0.000  0.000  0.000  0.000  0.138
tot    0.033  0.120  0.000  0.359  0.000  0.000  0.000  0.000  0.000  0.511
 
band    13 # energy   17.62790733 # occ.  0.00000000
 
ion      s     py     pz     px    dxy    dyz    dz2    dxz  x2-y2    tot
    1  0.000  0.093  0.000  0.031  0.000  0.000  0.000  0.000  0.000  0.124
    2  0.000  0.093  0.000  0.031  0.000  0.000  0.000  0.000  0.000  0.124
    3  0.000  0.109  0.000  0.036  0.000  0.000  0.000  0.000  0.000  0.146
    4  0.000  0.109  0.000  0.036  0.000  0.000  0.000  0.000  0.000  0.146
tot    0.000  0.404  0.000  0.135  0.000  0.000  0.000  0.000  0.000  0.539
 
band    14 # energy   19.55385018 # occ.  0.00000000
 
ion      s     py     pz     px    dxy    dyz    dz2    dxz  x2-y2    tot
    1  0.000  0.000  0.196  0.000  0.000  0.000  0.000  0.000  0.000  0.196
    2  0.000  0.000  0.196  0.000  0.000  0.000  0.000  0.000  0.000  0.196
    3  0.000  0.000  0.170  0.000  0.000  0.000  0.000  0.000  0.000  0.170
    4  0.000  0.000  0.170  0.000  0.000  0.000  0.000  0.000  0.000  0.170
tot    0.000  0.000  0.732  0.000  0.000  0.000  0.000  0.000  0.000  0.732
 
band    15 # energy   20.98463091 # occ.  0.00000000
 
ion      s     py     pz     px    dxy    dyz    dz2    dxz  x2-y2    tot
    1  0.000  0.000  0.200  0.000  0.000  0.000  0.000  0.000  0.000  0.200
    2  0.000  0.000  0.200  0.000  0.000  0.000  0.000  0.000  0.000  0.200
    3  0.000  0.000  0.199  0.000  0.000  0.000  0.000  0.000  0.000  0.199
    4  0.000  0.000  0.199  0.000  0.000  0.000  0.000  0.000  0.000  0.199
tot    0.000  0.000  0.797  0.000  0.000  0.000  0.000  0.000  0.000  0.797
 
band    16 # energy   21.96652754 # occ.  0.00000000
 
ion      s     py     pz     px    dxy    dyz    dz2    dxz  x2-y2    tot
    1  0.170  0.002  0.000  0.007  0.000  0.000  0.000  0.000  0.000  0.180
    2  0.170  0.002  0.000  0.007  0.000  0.000  0.000  0.000  0.000  0.180
    3  0.148  0.001  0.000  0.002  0.000  0.000  0.000  0.000  0.000  0.151
    4  0.148  0.001  0.000  0.002  0.000  0.000  0.000  0.000  0.000  0.151
tot    0.637  0.006  0.000  0.018  0.000  0.000  0.000  0.000  0.000  0.661
 

 k-point     3 :    0.11111111 0.00000000 0.00000000     weight = 0.00462963

band     1 # energy  -12.64578653 # occ.  1.00000000
 
ion      s     py     pz     px    dxy    dyz    dz2    dxz  x2-y2    tot
    1  0.156  0.001  0.000  0.002  0.000  0.000  0.000  0.000  0.000  0.159
    2  0.156  0.001  0.000  0.002  0.000  0.000  0.000  0.000  0.000  0.159
    3  0.154  0.001  0.000  0.002  0.000  0.000  0.000  0.000  0.000  0.157
    4  0.154  0.001  0.000  0.002  0.000  0.000  0.000  0.000  0.000  0.157
tot    0.620  0.003  0.000  0.009  0.000  0.000  0.000  0.000  0.000  0.633
 
band     2 # energy  -10.84447848 # occ.  1.00000000
 
ion      s     py     pz     px    dxy    dyz    dz2    dxz  x2-y2    tot
    1  0.176  0.001  0.000  0.003  0.000  0.000  0.000  0.000  0.000  0.180
    2  0.176  0.001  0.000  0.003  0.000  0.000  0.000  0.000  0.000  0.180
    3  0.176  0.001  0.000  0.003  0.000  0.000  0.000  0.000  0.000  0.180
    4  0.176  0.001  0.000  0.003  0.000  0.000  0.000  0.000  0.000  0.180
tot    0.704  0.004  0.000  0.011  0.000  0.000  0.000  0.000  0.000  0.719
 
band     3 # energy   -2.31393914 # occ.  1.00000000
 
ion      s     py     pz     px    dxy    dyz    dz2    dxz  x2-y2    tot
    1  0.000  0.000  0.100  0.000  0.000  0.000  0.000  0.000  0.000  0.100
    2  0.000  0.000  0.100  0.000  0.000  0.000  0.000  0.000  0.000  0.100
    3  0.000  0.000  0.095  0.000  0.000  0.000  0.000  0.000  0.000  0.095
    4  0.000  0.000  0.095  0.000  0.000  0.000  0.000  0.000  0.000  0.095
tot    0.000  0.000  0.389  0.000  0.000  0.000  0.000  0.000  0.000  0.389
 
band     4 # energy    3.86183067 # occ.  1.00000000
 
ion      s     py     pz     px    dxy    dyz    dz2    dxz  x2-y2    tot
    1  0.015  0.049  0.000  0.146  0.000  0.000  0.000  0.000  0.000  0.210
    2  0.015  0.049  0.000  0.146  0.000  0.000  0.000  0.000  0.000  0.210
    3  0.015  0.047  0.000  0.141  0.000  0.000  0.000  0.000  0.000  0.203
    4  0.015  0.047  0.000  0.141  0.000  0.000  0.000  0.000  0.000  0.203
tot    0.059  0.192  0.000  0.575  0.000  0.000  0.000  0.000  0.000  0.825
 
band     5 # energy    4.05786927 # occ.  1.00000000
 
ion      s     py     pz     px    dxy    dyz    dz2    dxz  x2-y2    tot
    1  0.000  0.000  0.153  0.000  0.000  0.000  0.000  0.000  0.000  0.153
    2  0.000  0.000  0.153  0.000  0.000  0.000  0.000  0.000  0.000  0.153
    3  0.000  0.000  0.159  0.000  0.000  0.000  0.000  0.000  0.000  0.159
    4  0.000  0.000  0.159  0.000  0.000  0.000  0.000  0.000  0.000  0.159
tot    0.000  0.000  0.624  0.000  0.000  0.000  0.000  0.000  0.000  0.624
 
band     6 # energy    4.25674616 # occ.  1.00000000
 
ion      s     py     pz     px    dxy    dyz    dz2    dxz  x2-y2    tot
    1  0.014  0.049  0.000  0.148  0.000  0.000  0.000  0.000  0.000  0.212
    2  0.014  0.049  0.000  0.148  0.000  0.000  0.000  0.000  0.000  0.212
    3  0.015  0.050  0.000  0.149  0.000  0.000  0.000  0.000  0.000  0.214
    4  0.015  0.050  0.000  0.149  0.000  0.000  0.000  0.000  0.000  0.214
tot    0.058  0.198  0.000  0.595  0.000  0.000  0.000  0.000  0.000  0.851
 
band     7 # energy    4.43425721 # occ.  1.00000000
 
ion      s     py     pz     px    dxy    dyz    dz2    dxz  x2-y2    tot
    1  0.000  0.159  0.000  0.053  0.000  0.000  0.000  0.000  0.000  0.212
    2  0.000  0.159  0.000  0.053  0.000  0.000  0.000  0.000  0.000  0.212
    3  0.000  0.155  0.000  0.051  0.000  0.000  0.000  0.000  0.000  0.206
    4  0.000  0.155  0.000  0.051  0.000  0.000  0.000  0.000  0.000  0.206
tot    0.000  0.627  0.000  0.209  0.000  0.000  0.000  0.000  0.000  0.836
 
band     8 # energy    4.76166977 # occ.  1.00000000
 
ion      s     py     pz     px    dxy    dyz    dz2    dxz  x2-y2    tot
    1  0.000  0.160  0.000  0.053  0.000  0.000  0.000  0.000  0.000  0.214
    2  0.000  0.160  0.000  0.053  0.000  0.000  0.000  0.000  0.000  0.214
    3  0.000  0.161  0.000  0.054  0.000  0.000  0.000  0.000  0.000  0.215
    4  0.000  0.161  0.000  0.054  0.000  0.000  0.000  0.000  0.000  0.215
tot    0.000  0.643  0.000  0.214  0.000  0.000  0.000  0.000  0.000  0.857
 
band     9 # energy   16.57251392 # occ.  0.00000000
 
ion      s     py     pz     px    dxy    dyz    dz2    dxz  x2-y2    tot
    1  0.009  0.010  0.000  0.030  0.000  0.000  0.000  0.000  0.000  0.048
    2  0.009  0.010  0.000  0.030  0.000  0.000  0.000  0.000  0.000  0.048
    3  0.027  0.011  0.000  0.033  0.000  0.000  0.000  0.000  0.000  0.071
    4  0.027  0.011  0.000  0.033  0.000  0.000  0.000  0.000  0.000  0.071
tot    0.071  0.042  0.000  0.125  0.000  0.000  0.000  0.000  0.000  0.237
 
band    10 # energy   16.89982058 # occ.  0.00000000
 
ion      s     py     pz     px    dxy    dyz    dz2    dxz  x2-y2    tot
    1  0.024  0.026  0.000  0.078  0.000  0.000  0.000  0.000  0.000  0.127
    2  0.024  0.026  0.000  0.078  0.000  0.000  0.000  0.000  0.000  0.127
    3  0.009  0.021  0.000  0.064  0.000  0.000  0.000  0.000  0.000  0.095
    4  0.009  0.021  0.000  0.064  0.000  0.000  0.000  0.000  0.000  0.095
tot    0.066  0.095  0.000  0.284  0.000  0.000  0.000  0.000  0.000  0.445
 
band    11 # energy   17.64557074 # occ.  0.00000000
 
ion      s     py     pz     px    dxy    dyz    dz2    dxz  x2-y2    tot
    1  0.028  0.020  0.000  0.061  0.000  0.000  0.000  0.000  0.000  0.109
    2  0.028  0.020  0.000  0.061  0.000  0.000  0.000  0.000  0.000  0.109
    3  0.025  0.025  0.000  0.076  0.000  0.000  0.000  0.000  0.000  0.126
    4  0.025  0.025  0.000  0.076  0.000  0.000  0.000  0.000  0.000  0.126
tot    0.105  0.091  0.000  0.274  0.000  0.000  0.000  0.000  0.000  0.470
 
band    12 # energy   18.18407636 # occ.  0.00000000
 
ion      s     py     pz     px    dxy    dyz    dz2    dxz  x2-y2    tot
    1  0.000  0.105  0.000  0.035  0.000  0.000  0.000  0.000  0.000  0.140
    2  0.000  0.105  0.000  0.035  0.000  0.000  0.000  0.000  0.000  0.140
    3  0.000  0.094  0.000  0.031  0.000  0.000  0.000  0.000  0.000  0.126
    4  0.000  0.094  0.000  0.031  0.000  0.000  0.000  0.000  0.000  0.126
tot    0.000  0.399  0.000  0.133  0.000  0.000  0.000  0.000  0.000  0.532
 
band    13 # energy   18.60408049 # occ.  0.00000000
 
ion      s     py     pz     px    dxy    dyz    dz2    dxz  x2-y2    tot
    1  0.000  0.097  0.000  0.032  0.000  0.000  0.000  0.000  0.000  0.129
    2  0.000  0.097  0.000  0.032  0.000  0.000  0.000  0.000  0.000  0.129
    3  0.000  0.111  0.000  0.037  0.000  0.000  0.000  0.000  0.000  0.148
    4  0.000  0.111  0.000  0.037  0.000  0.000  0.000  0.000  0.000  0.148
tot    0.000  0.415  0.000  0.138  0.000  0.000  0.000  0.000  0.000  0.554
 
band    14 # energy   18.63497333 # occ.  0.00000000
 
ion      s     py     pz     px    dxy    dyz    dz2    dxz  x2-y2    tot
    1  0.000  0.000  0.184  0.000  0.000  0.000  0.000  0.000  0.000  0.184
    2  0.000  0.000  0.184  0.000  0.000  0.000  0.000  0.000  0.000  0.184
    3  0.000  0.000  0.159  0.000  0.000  0.000  0.000  0.000  0.000  0.159
    4  0.000  0.000  0.159  0.000  0.000  0.000  0.000  0.000  0.000  0.159
tot    0.000  0.000  0.687  0.000  0.000  0.000  0.000  0.000  0.000  0.687
 
band    15 # energy   20.22491475 # occ.  0.00000000
 
ion      s     py     pz     px    dxy    dyz    dz2    dxz  x2-y2    tot
    1  0.000  0.000  0.192  0.000  0.000  0.000  0.000  0.000  0.000  0.192
    2  0.000  0.000  0.192  0.000  0.000  0.000  0.000  0.000  0.000  0.192
    3  0.000  0.000  0.190  0.000  0.000  0.000  0.000  0.000  0.000  0.190
    4  0.000  0.000  0.190  0.000  0.000  0.000  0.000  0.000  0.000  0.190
tot    0.000  0.000  0.764  0.000  0.000  0.000  0.000  0.000  0.000  0.764
 
band    16 # energy   22.37276973 # occ.  0.00000000
 
ion      s     py     pz     px    dxy    dyz    dz2    dxz  x2-y2    tot
    1  0.145  0.009  0.000  0.026  0.000  0.000  0.000  0.000  0.000  0.180
    2  0.145  0.009  0.000  0.026  0.000  0.000  0.000  0.000  0.000  0.180
    3  0.139  0.003  0.000  0.009  0.000  0.000  0.000  0.000  0.000  0.151
    4  0.139  0.003  0.000  0.009  0.000  0.000  0.000  0.000  0.000  0.151
tot    0.568  0.023  0.000  0.070  0.000  0.000  0.000  0.000  0.000  0.662
 

 k-point     4 :    0.16666667 0.00000000 0.00000000     weight = 0.00462963

band     1 # energy  -12.24886050 # occ.  1.00000000
 
ion      s     py     pz     px    dxy    dyz    dz2    dxz  x2-y2    tot
    1  0.153  0.002  0.000  0.005  0.000  0.000  0.000  0.000  0.000  0.160
    2  0.153  0.002  0.000  0.005  0.000  0.000  0.000  0.000  0.000  0.160
    3  0.151  0.002  0.000  0.005  0.000  0.000  0.000  0.000  0.000  0.158
    4  0.151  0.002  0.000  0.005  0.000  0.000  0.000  0.000  0.000  0.158
tot    0.609  0.007  0.000  0.021  0.000  0.000  0.000  0.000  0.000  0.637
 
band     2 # energy  -10.47785580 # occ.  1.00000000
 
ion      s     py     pz     px    dxy    dyz    dz2    dxz  x2-y2    tot
    1  0.172  0.002  0.000  0.006  0.000  0.000  0.000  0.000  0.000  0.181
    2  0.172  0.002  0.000  0.006  0.000  0.000  0.000  0.000  0.000  0.181
    3  0.172  0.002  0.000  0.006  0.000  0.000  0.000  0.000  0.000  0.181
    4  0.172  0.002  0.000  0.006  0.000  0.000  0.000  0.000  0.000  0.181
tot    0.689  0.008  0.000  0.025  0.000  0.000  0.000  0.000  0.000  0.723
 
band     3 # energy   -1.83165229 # occ.  1.00000000
 
ion      s     py     pz     px    dxy    dyz    dz2    dxz  x2-y2    tot
    1  0.000  0.000  0.100  0.000  0.000  0.000  0.000  0.000  0.000  0.100
    2  0.000  0.000  0.100  0.000  0.000  0.000  0.000  0.000  0.000  0.100
    3  0.000  0.000  0.095  0.000  0.000  0.000  0.000  0.000  0.000  0.095
    4  0.000  0.000  0.095  0.000  0.000  0.000  0.000  0.000  0.000  0.095
tot    0.000  0.000  0.391  0.000  0.000  0.000  0.000  0.000  0.000  0.391
 
band     4 # energy    2.55419916 # occ.  1.00000000
 
ion      s     py     pz     px    dxy    dyz    dz2    dxz  x2-y2    tot
    1  0.028  0.044  0.000  0.131  0.000  0.000  0.000  0.000  0.000  0.203
    2  0.028  0.044  0.000  0.131  0.000  0.000  0.000  0.000  0.000  0.203
    3  0.028  0.042  0.000  0.127  0.000  0.000  0.000  0.000  0.000  0.198
    4  0.028  0.042  0.000  0.127  0.000  0.000  0.000  0.000  0.000  0.198
tot    0.112  0.172  0.000  0.516  0.000  0.000  0.000  0.000  0.000  0.801
 
band     5 # energy    3.10181874 # occ.  1.00000000
 
ion      s     py     pz     px    dxy    dyz    dz2    dxz  x2-y2    tot
    1  0.028  0.045  0.000  0.135  0.000  0.000  0.000  0.000  0.000  0.209
    2  0.028  0.045  0.000  0.135  0.000  0.000  0.000  0.000  0.000  0.209
    3  0.028  0.045  0.000  0.136  0.000  0.000  0.000  0.000  0.000  0.210
    4  0.028  0.045  0.000  0.136  0.000  0.000  0.000  0.000  0.000  0.210
tot    0.113  0.181  0.000  0.543  0.000  0.000  0.000  0.000  0.000  0.837
 
band     6 # energy    3.79189597 # occ.  1.00000000
 
ion      s     py     pz     px    dxy    dyz    dz2    dxz  x2-y2    tot
    1  0.000  0.156  0.000  0.052  0.000  0.000  0.000  0.000  0.000  0.208
    2  0.000  0.156  0.000  0.052  0.000  0.000  0.000  0.000  0.000  0.208
    3  0.000  0.153  0.000  0.051  0.000  0.000  0.000  0.000  0.000  0.204
    4  0.000  0.153  0.000  0.051  0.000  0.000  0.000  0.000  0.000  0.204
tot    0.000  0.619  0.000  0.206  0.000  0.000  0.000  0.000  0.000  0.825
 
band     7 # energy    4.18523265 # occ.  1.00000000
 
ion      s     py     pz     px    dxy    dyz    dz2    dxz  x2-y2    tot
    1  0.000  0.159  0.000  0.053  0.000  0.000  0.000  0.000  0.000  0.213
    2  0.000  0.159  0.000  0.053  0.000  0.000  0.000  0.000  0.000  0.213
    3  0.000  0.159  0.000  0.053  0.000  0.000  0.000  0.000  0.000  0.212
    4  0.000  0.159  0.000  0.053  0.000  0.000  0.000  0.000  0.000  0.212
tot    0.000  0.637  0.000  0.212  0.000  0.000  0.000  0.000  0.000  0.849
 
band     8 # energy    4.45487149 # occ.  1.00000000
 
ion      s     py     pz     px    dxy    dyz    dz2    dxz  x2-y2    tot
    1  0.000  0.000  0.153  0.000  0.000  0.000  0.000  0.000  0.000  0.153
    2  0.000  0.000  0.153  0.000  0.000  0.000  0.000  0.000  0.000  0.153
    3  0.000  0.000  0.160  0.000  0.000  0.000  0.000  0.000  0.000  0.160
    4  0.000  0.000  0.160  0.000  0.000  0.000  0.000  0.000  0.000  0.160
tot    0.000  0.000  0.625  0.000  0.000  0.000  0.000  0.000  0.000  0.625
 
band     9 # energy   16.54877500 # occ.  0.00000000
 
ion      s     py     pz     px    dxy    dyz    dz2    dxz  x2-y2    tot
    1  0.007  0.020  0.000  0.061  0.000  0.000  0.000  0.000  0.000  0.088
    2  0.007  0.020  0.000  0.061  0.000  0.000  0.000  0.000  0.000  0.088
    3  0.038  0.019  0.000  0.056  0.000  0.000  0.000  0.000  0.000  0.112
    4  0.038  0.019  0.000  0.056  0.000  0.000  0.000  0.000  0.000  0.112
tot    0.090  0.077  0.000  0.232  0.000  0.000  0.000  0.000  0.000  0.400
 
band    10 # energy   17.01022130 # occ.  0.00000000
 
ion      s     py     pz     px    dxy    dyz    dz2    dxz  x2-y2    tot
    1  0.040  0.013  0.000  0.040  0.000  0.000  0.000  0.000  0.000  0.093
    2  0.040  0.013  0.000  0.040  0.000  0.000  0.000  0.000  0.000  0.093
    3  0.003  0.014  0.000  0.042  0.000  0.000  0.000  0.000  0.000  0.058
    4  0.003  0.014  0.000  0.042  0.000  0.000  0.000  0.000  0.000  0.058