unknown system                          
            1
     2.467291    0.000000    0.000000
    -1.233646    2.136737    0.000000
     0.000000    0.000000    7.803073
   C 
   4
Direct configuration=     1
   0.00000000  0.00000000  0.25000000
   0.00000000  0.00000000  0.75000000
   0.33333300  0.66666700  0.25000000
   0.66666700  0.33333300  0.75000000
unknown system                          
            1
     2.455510    0.000000    0.000000
    -1.227755    2.126534    0.000000
     0.000000   -0.000000    7.765570
   C 
   4
Direct configuration=     2
  -0.00000000  0.00000000  0.25000000
  -0.00000000 -0.00000000  0.75000000
   0.33333300  0.66666700  0.25000000
   0.66666700  0.33333300  0.75000000
unknown system                          
            1
     2.420165    0.000000    0.000000
    -1.210083    2.095925    0.000000
     0.000000   -0.000000    7.653062
   C 
   4
Direct configuration=     3
  -0.00000000  0.00000000  0.25000000
  -0.00000000 -0.00000000  0.75000000
   0.33333300  0.66666700  0.25000000
   0.66666700  0.33333300  0.75000000
unknown system                          
            1
     2.349477    0.000000    0.000000
    -1.174739    2.034707    0.000000
     0.000000   -0.000000    7.428046
   C 
   4
Direct configuration=     4
  -0.00000000  0.00000000  0.25000000
  -0.00000000 -0.00000000  0.75000000
   0.33333300  0.66666700  0.25000000
   0.66666700  0.33333300  0.75000000
unknown system                          
            1
     2.338734    0.000000    0.000000
    -1.169367    2.025403    0.000000
     0.000000   -0.000000    7.393849
   C 
   4
Direct configuration=     5
  -0.00000000  0.00000000  0.25000000
  -0.00000000 -0.00000000  0.75000000
   0.33333300  0.66666700  0.25000000
   0.66666700  0.33333300  0.75000000
unknown system                          
            1
     2.341188   -0.000000   -0.000000
    -1.170595    2.027529    0.000000
     0.000000   -0.000000    7.270224
   C 
   4
Direct configuration=     6
  -0.00000000  0.00000000  0.25000000
  -0.00000000 -0.00000000  0.75000000
   0.33333300  0.66666700  0.25000000
   0.66666700  0.33333300  0.75000000
unknown system                          
            1
     2.348552   -0.000000   -0.000000
    -1.174276    2.033906    0.000000
     0.000000   -0.000000    6.899351
   C 
   4
Direct configuration=     7
  -0.00000000  0.00000000  0.25000000
  -0.00000000 -0.00000000  0.75000000
   0.33333300  0.66666700  0.25000000
   0.66666700  0.33333300  0.75000000
unknown system                          
            1
     2.363278   -0.000000   -0.000000
    -1.181640    2.046659    0.000000
     0.000000   -0.000000    6.157605
   C 
   4
Direct configuration=     8
  -0.00000000  0.00000000  0.25000000
  -0.00000000 -0.00000000  0.75000000
   0.33333300  0.66666700  0.25000000
   0.66666700  0.33333300  0.75000000
unknown system                          
            1
     2.392731   -0.000000   -0.000000
    -1.196366    2.072166    0.000000
     0.000000   -0.000000    4.674113
   C 
   4
Direct configuration=     9
  -0.00000000  0.00000000  0.25000000
  -0.00000000 -0.00000000  0.75000000
   0.33333300  0.66666700  0.25000000
   0.66666700  0.33333300  0.75000000
unknown system                          
            1
     2.380493   -0.000000   -0.000000
    -1.190247    2.061568    0.000000
     0.000000   -0.000000    5.290519
   C 
   4
Direct configuration=    10
  -0.00000000  0.00000000  0.25000000
  -0.00000000 -0.00000000  0.75000000
   0.33333300  0.66666700  0.25000000
   0.66666700  0.33333300  0.75000000
unknown system                          
            1
     2.384157   -0.000000   -0.000000
    -1.192079    2.064741    0.000000
     0.000000   -0.000000    5.105964
   C 
   4
Direct configuration=    11
  -0.00000000  0.00000000  0.25000000
  -0.00000000 -0.00000000  0.75000000
   0.33333300  0.66666700  0.25000000
   0.66666700  0.33333300  0.75000000
unknown system                          
            1
     2.384989   -0.000000   -0.000000
    -1.192495    2.065462    0.000000
     0.000000   -0.000000    5.064066
   C 
   4
Direct configuration=    12
  -0.00000000  0.00000000  0.25000000
  -0.00000000 -0.00000000  0.75000000
   0.33333300  0.66666700  0.25000000
   0.66666700  0.33333300  0.75000000
unknown system                          
            1
     2.404193   -0.000000   -0.000000
    -1.202097    2.082093    0.000000
     0.000000   -0.000000    5.092547
   C 
   4
Direct configuration=    13
  -0.00000000  0.00000000  0.25000000
  -0.00000000 -0.00000000  0.75000000
   0.33333300  0.66666700  0.25000000
   0.66666700  0.33333300  0.75000000
unknown system                          
            1
     2.396956   -0.000000   -0.000000
    -1.198478    2.075825    0.000000
     0.000000   -0.000000    5.081813
   C 
   4
Direct configuration=    14
  -0.00000000  0.00000000  0.25000000
  -0.00000000 -0.00000000  0.75000000
   0.33333300  0.66666700  0.25000000
   0.66666700  0.33333300  0.75000000
