  32   32
1 1
    62.872046487679995    -0.000014653420000     0.000000000000000
    -0.000014653420000    62.872065104729998    -0.000000000000000
     0.000000000000000    -0.000000000000000    14.406280583009998
1 2
    -9.150243441450000    -0.000001080990000     0.000000000000000
    -0.000001080990000     4.436757222760000    -0.000000000000000
     0.000000000000000    -0.000000000000000     0.786275132120000
1 3
     1.040003303270000     5.883345487580000    -0.000000000000000
     5.883345487580000    -5.753495287240000    -0.000000000000000
    -0.000000000000000    -0.000000000000000     0.786275132120000
1 4
     1.040008828330000    -5.883342845160000    -0.000000000000000
    -5.883342845160000    -5.753495287240000     0.000000000000000
    -0.000000000000000     0.000000000000000     0.786275132120000
1 5
    -0.007991398740000     0.000000000000000    -0.000000000000000
     0.000000000000000    -0.007991398740000     0.000000000000000
    -0.000000000000000     0.000000000000000     0.000771946970000
1 6
    -0.009959521200000     0.000000000000000     0.000000000000000
     0.000000000000000    -0.001131556310000     0.000000000000000
     0.000000000000000     0.000000000000000     0.000031709040000
1 7
    -0.003338577560000     0.003822620860000    -0.000000000000000
     0.003822620860000    -0.007752499950000     0.000000000000000
    -0.000000000000000     0.000000000000000     0.000031709040000
1 8
    -0.003338577560000    -0.003822620860000    -0.000000000000000
    -0.003822620860000    -0.007752499950000    -0.000000000000000
    -0.000000000000000    -0.000000000000000     0.000031709040000
1 9
     0.009509829360000    -0.000000000000000    -0.000000000000000
    -0.000000000000000     0.009509829360000     0.000000000000000
    -0.000000000000000     0.000000000000000    -0.006183503020000
1 10
    -0.013564863070000    -0.000000000000000     0.000000000000000
    -0.000000000000000     0.001749041820000    -0.000884610150000
     0.000000000000000    -0.000884610150000     0.003770733340000
1 11
    -0.002079464430000     0.006631152990000     0.000766061580000
     0.006631152990000    -0.009736476930000     0.000442365130000
     0.000766061580000     0.000442365130000     0.003770733340000
1 12
    -0.002079464430000    -0.006631152990000    -0.000766061580000
    -0.006631152990000    -0.009736476930000     0.000442365130000
    -0.000766061580000     0.000442365130000     0.003770733340000
1 13
     0.009509829360000    -0.000000000000000     0.000000000000000
    -0.000000000000000     0.009509829360000    -0.000000000000000
     0.000000000000000    -0.000000000000000    -0.006183503020000
1 14
    -0.013564863070000    -0.000000000000000    -0.000000000000000
    -0.000000000000000     0.001749041820000     0.000884610150000
    -0.000000000000000     0.000884610150000     0.003770733340000
1 15
    -0.002079464430000     0.006631152990000    -0.000766061580000
     0.006631152990000    -0.009736476930000    -0.000442365130000
    -0.000766061580000    -0.000442365130000     0.003770733340000
1 16
    -0.002079464430000    -0.006631152990000     0.000766061580000
    -0.006631152990000    -0.009736476930000    -0.000442365130000
     0.000766061580000    -0.000442365130000     0.003770733340000
1 17
    -9.255243603449999     0.000006365830000    -0.000000000000000
     0.000006365830000   -26.952572177589996     0.000000000000000
     0.000000000000000     0.000000000000000    -5.165690759890000
1 18
    -1.355565783960000     0.000000360330000    -0.000000000000000
     0.000000360330000    -1.355566144290000     0.000000000000000
     0.000000000000000     0.000000000000000    -1.259033016630000
1 19
   -22.528237691910000     7.663168978270000    -0.000000000000000
     7.663168978270000   -13.679577848909998    -0.000000000000000
     0.000000000000000     0.000000000000000    -5.165690759890000
1 20
   -22.528230485309997    -7.663162492329999    -0.000000000000000
    -7.663162492329999   -13.679577848909998     0.000000000000000
    -0.000000000000000     0.000000000000000    -5.165690759890000
1 21
    -0.009049808060000    -0.000000000000000     0.000000000000000
    -0.000000000000000     0.002435590580000     0.000000000000000
     0.000000000000000    -0.000000000000000    -0.000545299400000
1 22
    -0.003289332460000     0.000000000000000    -0.000000000000000
     0.000000000000000    -0.003289332460000    -0.000000000000000
    -0.000000000000000     0.000000000000000    -0.000712012080000
1 23
    -0.000435759080000    -0.004973394770000    -0.000000000000000
    -0.004973394770000    -0.006178458400000     0.000000000000000
    -0.000000000000000    -0.000000000000000    -0.000545299400000
1 24
    -0.000435759080000     0.004973394770000     0.000000000000000
     0.004973394770000    -0.006178458400000    -0.000000000000000
     0.000000000000000     0.000000000000000    -0.000545299400000
1 25
    -0.010564635380000    -0.005974031180000    -0.001237973770000
    -0.005974031180000    -0.003666477860000    -0.000714774610000
    -0.001466182770000    -0.000846535280000    -0.006761952780000
1 26
    -0.010564635380000     0.005974031180000     0.001237973770000
     0.005974031180000    -0.003666477860000    -0.000714774610000
     0.001466182770000    -0.000846535280000    -0.006761952780000
1 27
    -0.021181038170000     0.000000000000000     0.000000000000000
     0.000000000000000    -0.021181038170000    -0.000000000000000
     0.000000000000000     0.000000000000000     0.008183094300000
1 28
    -0.000217399100000     0.000000000000000    -0.000000000000000
     0.000000000000000    -0.014013714140000     0.001429429110000
    -0.000000000000000     0.001693070560000    -0.006761952780000
1 29
    -0.010564635380000    -0.005974031180000     0.001237973770000
    -0.005974031180000    -0.003666477860000     0.000714774610000
     0.001466182770000     0.000846535280000    -0.006761952780000
1 30
    -0.010564635380000     0.005974031180000    -0.001237973770000
     0.005974031180000    -0.003666477860000     0.000714774610000
    -0.001466182770000     0.000846535280000    -0.006761952780000
1 31
    -0.021181038170000     0.000000000000000    -0.000000000000000
     0.000000000000000    -0.021181038170000     0.000000000000000
    -0.000000000000000    -0.000000000000000     0.008183094300000
1 32
    -0.000217399100000     0.000000000000000     0.000000000000000
     0.000000000000000    -0.014013714140000    -0.001429429110000
     0.000000000000000    -0.001693070560000    -0.006761952780000
2 1
    -9.150243441450000    -0.000001080990000     0.000000000000000
    -0.000001080990000     4.436757222760000    -0.000000000000000
     0.000000000000000    -0.000000000000000     0.786275132120000
2 2
    62.872046487679995    -0.000014653420000     0.000000000000000
    -0.000014653420000    62.872065104729998    -0.000000000000000
     0.000000000000000    -0.000000000000000    14.406280583009998
2 3
     1.040008828330000    -5.883342845160000    -0.000000000000000
    -5.883342845160000    -5.753495287240000     0.000000000000000
    -0.000000000000000     0.000000000000000     0.786275132120000
2 4
     1.040003303270000     5.883345487580000    -0.000000000000000
     5.883345487580000    -5.753495287240000    -0.000000000000000
    -0.000000000000000    -0.000000000000000     0.786275132120000
2 5
    -0.009959521200000     0.000000000000000     0.000000000000000
     0.000000000000000    -0.001131556310000     0.000000000000000
     0.000000000000000     0.000000000000000     0.000031709040000
2 6
    -0.007991398740000     0.000000000000000    -0.000000000000000
     0.000000000000000    -0.007991398740000     0.000000000000000
    -0.000000000000000     0.000000000000000     0.000771946970000
2 7
    -0.003338577560000    -0.003822620860000    -0.000000000000000
    -0.003822620860000    -0.007752499950000    -0.000000000000000
    -0.000000000000000    -0.000000000000000     0.000031709040000
2 8
    -0.003338577560000     0.003822620860000    -0.000000000000000
     0.003822620860000    -0.007752499950000     0.000000000000000
    -0.000000000000000     0.000000000000000     0.000031709040000
2 9
    -0.013564863070000    -0.000000000000000     0.000000000000000
    -0.000000000000000     0.001749041820000    -0.000884610150000
     0.000000000000000    -0.000884610150000     0.003770733340000
2 10
     0.009509829360000    -0.000000000000000    -0.000000000000000
    -0.000000000000000     0.009509829360000     0.000000000000000
    -0.000000000000000     0.000000000000000    -0.006183503020000
2 11
    -0.002079464430000    -0.006631152990000    -0.000766061580000
    -0.006631152990000    -0.009736476930000     0.000442365130000
    -0.000766061580000     0.000442365130000     0.003770733340000
2 12
    -0.002079464430000     0.006631152990000     0.000766061580000
     0.006631152990000    -0.009736476930000     0.000442365130000
     0.000766061580000     0.000442365130000     0.003770733340000
2 13
    -0.013564863070000    -0.000000000000000    -0.000000000000000
    -0.000000000000000     0.001749041820000     0.000884610150000
    -0.000000000000000     0.000884610150000     0.003770733340000
2 14
     0.009509829360000    -0.000000000000000     0.000000000000000
    -0.000000000000000     0.009509829360000    -0.000000000000000
     0.000000000000000    -0.000000000000000    -0.006183503020000
2 15
    -0.002079464430000    -0.006631152990000     0.000766061580000
    -0.006631152990000    -0.009736476930000    -0.000442365130000
     0.000766061580000    -0.000442365130000     0.003770733340000
2 16
    -0.002079464430000     0.006631152990000    -0.000766061580000
     0.006631152990000    -0.009736476930000    -0.000442365130000
    -0.000766061580000    -0.000442365130000     0.003770733340000
2 17
    -1.355565783960000     0.000000360330000    -0.000000000000000
     0.000000360330000    -1.355566144290000     0.000000000000000
     0.000000000000000     0.000000000000000    -1.259033016630000
2 18
    -9.255243603449999     0.000006365830000    -0.000000000000000
     0.000006365830000   -26.952572177589996     0.000000000000000
     0.000000000000000     0.000000000000000    -5.165690759890000
2 19
   -22.528230485309997    -7.663162492329999    -0.000000000000000
    -7.663162492329999   -13.679577848909998     0.000000000000000
    -0.000000000000000     0.000000000000000    -5.165690759890000
2 20
   -22.528237691910000     7.663168978270000    -0.000000000000000
     7.663168978270000   -13.679577848909998    -0.000000000000000
     0.000000000000000     0.000000000000000    -5.165690759890000
2 21
    -0.003289332460000     0.000000000000000    -0.000000000000000
     0.000000000000000    -0.003289332460000    -0.000000000000000
    -0.000000000000000     0.000000000000000    -0.000712012080000
2 22
    -0.009049808060000    -0.000000000000000     0.000000000000000
    -0.000000000000000     0.002435590580000     0.000000000000000
     0.000000000000000    -0.000000000000000    -0.000545299400000
2 23
    -0.000435759080000     0.004973394770000     0.000000000000000
     0.004973394770000    -0.006178458400000    -0.000000000000000
     0.000000000000000     0.000000000000000    -0.000545299400000
2 24
    -0.000435759080000    -0.004973394770000    -0.000000000000000
    -0.004973394770000    -0.006178458400000     0.000000000000000
    -0.000000000000000    -0.000000000000000    -0.000545299400000
2 25
    -0.010564635380000     0.005974031180000     0.001237973770000
     0.005974031180000    -0.003666477860000    -0.000714774610000
     0.001466182770000    -0.000846535280000    -0.006761952780000
2 26
    -0.010564635380000    -0.005974031180000    -0.001237973770000
    -0.005974031180000    -0.003666477860000    -0.000714774610000
    -0.001466182770000    -0.000846535280000    -0.006761952780000
2 27
    -0.000217399100000     0.000000000000000    -0.000000000000000
     0.000000000000000    -0.014013714140000     0.001429429110000
    -0.000000000000000     0.001693070560000    -0.006761952780000
2 28
    -0.021181038170000     0.000000000000000     0.000000000000000
     0.000000000000000    -0.021181038170000    -0.000000000000000
     0.000000000000000     0.000000000000000     0.008183094300000
2 29
    -0.010564635380000     0.005974031180000    -0.001237973770000
     0.005974031180000    -0.003666477860000     0.000714774610000
    -0.001466182770000     0.000846535280000    -0.006761952780000
2 30
    -0.010564635380000    -0.005974031180000     0.001237973770000
    -0.005974031180000    -0.003666477860000     0.000714774610000
     0.001466182770000     0.000846535280000    -0.006761952780000
2 31
    -0.000217399100000     0.000000000000000     0.000000000000000
     0.000000000000000    -0.014013714140000    -0.001429429110000
     0.000000000000000    -0.001693070560000    -0.006761952780000
2 32
    -0.021181038170000     0.000000000000000    -0.000000000000000
     0.000000000000000    -0.021181038170000     0.000000000000000
    -0.000000000000000    -0.000000000000000     0.008183094300000
3 1
     1.040003303270000     5.883345487580000    -0.000000000000000
     5.883345487580000    -5.753495287240000    -0.000000000000000
    -0.000000000000000    -0.000000000000000     0.786275132120000
3 2
     1.040008828330000    -5.883342845160000    -0.000000000000000
    -5.883342845160000    -5.753495287240000     0.000000000000000
    -0.000000000000000     0.000000000000000     0.786275132120000
3 3
    62.872046487679995    -0.000014653420000     0.000000000000000
    -0.000014653420000    62.872065104729998    -0.000000000000000
     0.000000000000000    -0.000000000000000    14.406280583009998
3 4
    -9.150243441450000    -0.000001080990000     0.000000000000000
    -0.000001080990000     4.436757222760000    -0.000000000000000
     0.000000000000000    -0.000000000000000     0.786275132120000
3 5
    -0.003338577560000     0.003822620860000    -0.000000000000000
     0.003822620860000    -0.007752499950000     0.000000000000000
    -0.000000000000000     0.000000000000000     0.000031709040000
3 6
    -0.003338577560000    -0.003822620860000    -0.000000000000000
    -0.003822620860000    -0.007752499950000    -0.000000000000000
    -0.000000000000000    -0.000000000000000     0.000031709040000
3 7
    -0.007991398740000     0.000000000000000    -0.000000000000000
     0.000000000000000    -0.007991398740000     0.000000000000000
    -0.000000000000000     0.000000000000000     0.000771946970000
3 8
    -0.009959521200000     0.000000000000000     0.000000000000000
     0.000000000000000    -0.001131556310000     0.000000000000000
     0.000000000000000     0.000000000000000     0.000031709040000
3 9
    -0.002079464430000     0.006631152990000     0.000766061580000
     0.006631152990000    -0.009736476930000     0.000442365130000
     0.000766061580000     0.000442365130000     0.003770733340000
3 10
    -0.002079464430000    -0.006631152990000    -0.000766061580000
    -0.006631152990000    -0.009736476930000     0.000442365130000
    -0.000766061580000     0.000442365130000     0.003770733340000
3 11
     0.009509829360000    -0.000000000000000    -0.000000000000000
    -0.000000000000000     0.009509829360000     0.000000000000000
    -0.000000000000000     0.000000000000000    -0.006183503020000
3 12
    -0.013564863070000    -0.000000000000000     0.000000000000000
    -0.000000000000000     0.001749041820000    -0.000884610150000
     0.000000000000000    -0.000884610150000     0.003770733340000
3 13
    -0.002079464430000     0.006631152990000    -0.000766061580000
     0.006631152990000    -0.009736476930000    -0.000442365130000
    -0.000766061580000    -0.000442365130000     0.003770733340000
3 14
    -0.002079464430000    -0.006631152990000     0.000766061580000
    -0.006631152990000    -0.009736476930000    -0.000442365130000
     0.000766061580000    -0.000442365130000     0.003770733340000
3 15
     0.009509829360000    -0.000000000000000     0.000000000000000
    -0.000000000000000     0.009509829360000    -0.000000000000000
     0.000000000000000    -0.000000000000000    -0.006183503020000
3 16
    -0.013564863070000    -0.000000000000000    -0.000000000000000
    -0.000000000000000     0.001749041820000     0.000884610150000
    -0.000000000000000     0.000884610150000     0.003770733340000
3 17
   -22.528237691910000     7.663168978270000    -0.000000000000000
     7.663168978270000   -13.679577848909998    -0.000000000000000
     0.000000000000000     0.000000000000000    -5.165690759890000
3 18
   -22.528230485309997    -7.663162492329999    -0.000000000000000
    -7.663162492329999   -13.679577848909998     0.000000000000000
    -0.000000000000000     0.000000000000000    -5.165690759890000
3 19
    -9.255243603449999     0.000006365830000    -0.000000000000000
     0.000006365830000   -26.952572177589996     0.000000000000000
     0.000000000000000     0.000000000000000    -5.165690759890000
3 20
    -1.355565783960000     0.000000360330000    -0.000000000000000
     0.000000360330000    -1.355566144290000     0.000000000000000
     0.000000000000000     0.000000000000000    -1.259033016630000
3 21
    -0.000435759080000    -0.004973394770000    -0.000000000000000
    -0.004973394770000    -0.006178458400000     0.000000000000000
    -0.000000000000000    -0.000000000000000    -0.000545299400000
3 22
    -0.000435759080000     0.004973394770000     0.000000000000000
     0.004973394770000    -0.006178458400000    -0.000000000000000
     0.000000000000000     0.000000000000000    -0.000545299400000
3 23
    -0.009049808060000    -0.000000000000000     0.000000000000000
    -0.000000000000000     0.002435590580000     0.000000000000000
     0.000000000000000    -0.000000000000000    -0.000545299400000
3 24
    -0.003289332460000     0.000000000000000    -0.000000000000000
     0.000000000000000    -0.003289332460000    -0.000000000000000
    -0.000000000000000     0.000000000000000    -0.000712012080000
3 25
    -0.021181038170000     0.000000000000000     0.000000000000000
     0.000000000000000    -0.021181038170000    -0.000000000000000
     0.000000000000000     0.000000000000000     0.008183094300000
3 26
    -0.000217399100000     0.000000000000000    -0.000000000000000
     0.000000000000000    -0.014013714140000     0.001429429110000
    -0.000000000000000     0.001693070560000    -0.006761952780000
3 27
    -0.010564635380000    -0.005974031180000    -0.001237973770000
    -0.005974031180000    -0.003666477860000    -0.000714774610000
    -0.001466182770000    -0.000846535280000    -0.006761952780000
3 28
    -0.010564635380000     0.005974031180000     0.001237973770000
     0.005974031180000    -0.003666477860000    -0.000714774610000
     0.001466182770000    -0.000846535280000    -0.006761952780000
3 29
    -0.021181038170000     0.000000000000000    -0.000000000000000
     0.000000000000000    -0.021181038170000     0.000000000000000
    -0.000000000000000    -0.000000000000000     0.008183094300000
3 30
    -0.000217399100000     0.000000000000000     0.000000000000000
     0.000000000000000    -0.014013714140000    -0.001429429110000
     0.000000000000000    -0.001693070560000    -0.006761952780000
3 31
    -0.010564635380000    -0.005974031180000     0.001237973770000
    -0.005974031180000    -0.003666477860000     0.000714774610000
     0.001466182770000     0.000846535280000    -0.006761952780000
3 32
    -0.010564635380000     0.005974031180000    -0.001237973770000
     0.005974031180000    -0.003666477860000     0.000714774610000
    -0.001466182770000     0.000846535280000    -0.006761952780000
4 1
     1.040008828330000    -5.883342845160000    -0.000000000000000
    -5.883342845160000    -5.753495287240000     0.000000000000000
    -0.000000000000000     0.000000000000000     0.786275132120000
4 2
     1.040003303270000     5.883345487580000    -0.000000000000000
     5.883345487580000    -5.753495287240000    -0.000000000000000
    -0.000000000000000    -0.000000000000000     0.786275132120000
4 3
    -9.150243441450000    -0.000001080990000     0.000000000000000
    -0.000001080990000     4.436757222760000    -0.000000000000000
     0.000000000000000    -0.000000000000000     0.786275132120000
4 4
    62.872046487679995    -0.000014653420000     0.000000000000000
    -0.000014653420000    62.872065104729998    -0.000000000000000
     0.000000000000000    -0.000000000000000    14.406280583009998
4 5
    -0.003338577560000    -0.003822620860000    -0.000000000000000
    -0.003822620860000    -0.007752499950000    -0.000000000000000
    -0.000000000000000    -0.000000000000000     0.000031709040000
4 6
    -0.003338577560000     0.003822620860000    -0.000000000000000
     0.003822620860000    -0.007752499950000     0.000000000000000
    -0.000000000000000     0.000000000000000     0.000031709040000
4 7
    -0.009959521200000     0.000000000000000     0.000000000000000
     0.000000000000000    -0.001131556310000     0.000000000000000
     0.000000000000000     0.000000000000000     0.000031709040000
4 8
    -0.007991398740000     0.000000000000000    -0.000000000000000
     0.000000000000000    -0.007991398740000     0.000000000000000
    -0.000000000000000     0.000000000000000     0.000771946970000
4 9
    -0.002079464430000    -0.006631152990000    -0.000766061580000
    -0.006631152990000    -0.009736476930000     0.000442365130000
    -0.000766061580000     0.000442365130000     0.003770733340000
4 10
    -0.002079464430000     0.006631152990000     0.000766061580000
     0.006631152990000    -0.009736476930000     0.000442365130000
     0.000766061580000     0.000442365130000     0.003770733340000
4 11
    -0.013564863070000    -0.000000000000000     0.000000000000000
    -0.000000000000000     0.001749041820000    -0.000884610150000
     0.000000000000000    -0.000884610150000     0.003770733340000
4 12
     0.009509829360000    -0.000000000000000    -0.000000000000000
    -0.000000000000000     0.009509829360000     0.000000000000000
    -0.000000000000000     0.000000000000000    -0.006183503020000
4 13
    -0.002079464430000    -0.006631152990000     0.000766061580000
    -0.006631152990000    -0.009736476930000    -0.000442365130000
     0.000766061580000    -0.000442365130000     0.003770733340000
4 14
    -0.002079464430000     0.006631152990000    -0.000766061580000
     0.006631152990000    -0.009736476930000    -0.000442365130000
    -0.000766061580000    -0.000442365130000     0.003770733340000
4 15
    -0.013564863070000    -0.000000000000000    -0.000000000000000
    -0.000000000000000     0.001749041820000     0.000884610150000
    -0.000000000000000     0.000884610150000     0.003770733340000
4 16
     0.009509829360000    -0.000000000000000     0.000000000000000
    -0.000000000000000     0.009509829360000    -0.000000000000000
     0.000000000000000    -0.000000000000000    -0.006183503020000
4 17
   -22.528230485309997    -7.663162492329999    -0.000000000000000
    -7.663162492329999   -13.679577848909998     0.000000000000000
    -0.000000000000000     0.000000000000000    -5.165690759890000
4 18
   -22.528237691910000     7.663168978270000    -0.000000000000000
     7.663168978270000   -13.679577848909998    -0.000000000000000
     0.000000000000000     0.000000000000000    -5.165690759890000
4 19
    -1.355565783960000     0.000000360330000    -0.000000000000000
     0.000000360330000    -1.355566144290000     0.000000000000000
     0.000000000000000     0.000000000000000    -1.259033016630000
4 20
    -9.255243603449999     0.000006365830000    -0.000000000000000
     0.000006365830000   -26.952572177589996     0.000000000000000
     0.000000000000000     0.000000000000000    -5.165690759890000
4 21
    -0.000435759080000     0.004973394770000     0.000000000000000
     0.004973394770000    -0.006178458400000    -0.000000000000000
     0.000000000000000     0.000000000000000    -0.000545299400000
4 22
    -0.000435759080000    -0.004973394770000    -0.000000000000000
    -0.004973394770000    -0.006178458400000     0.000000000000000
    -0.000000000000000    -0.000000000000000    -0.000545299400000
4 23
    -0.003289332460000     0.000000000000000    -0.000000000000000
     0.000000000000000    -0.003289332460000    -0.000000000000000
    -0.000000000000000     0.000000000000000    -0.000712012080000
4 24
    -0.009049808060000    -0.000000000000000     0.000000000000000
    -0.000000000000000     0.002435590580000     0.000000000000000
     0.000000000000000    -0.000000000000000    -0.000545299400000
4 25
    -0.000217399100000     0.000000000000000    -0.000000000000000
     0.000000000000000    -0.014013714140000     0.001429429110000
    -0.000000000000000     0.001693070560000    -0.006761952780000
4 26
    -0.021181038170000     0.000000000000000     0.000000000000000
     0.000000000000000    -0.021181038170000    -0.000000000000000
     0.000000000000000     0.000000000000000     0.008183094300000
4 27
    -0.010564635380000     0.005974031180000     0.001237973770000
     0.005974031180000    -0.003666477860000    -0.000714774610000
     0.001466182770000    -0.000846535280000    -0.006761952780000
4 28
    -0.010564635380000    -0.005974031180000    -0.001237973770000
    -0.005974031180000    -0.003666477860000    -0.000714774610000
    -0.001466182770000    -0.000846535280000    -0.006761952780000
4 29
    -0.000217399100000     0.000000000000000     0.000000000000000
     0.000000000000000    -0.014013714140000    -0.001429429110000
     0.000000000000000    -0.001693070560000    -0.006761952780000
4 30
    -0.021181038170000     0.000000000000000    -0.000000000000000
     0.000000000000000    -0.021181038170000     0.000000000000000
    -0.000000000000000    -0.000000000000000     0.008183094300000
4 31
    -0.010564635380000     0.005974031180000    -0.001237973770000
     0.005974031180000    -0.003666477860000     0.000714774610000
    -0.001466182770000     0.000846535280000    -0.006761952780000
4 32
    -0.010564635380000    -0.005974031180000     0.001237973770000
    -0.005974031180000    -0.003666477860000     0.000714774610000
     0.001466182770000     0.000846535280000    -0.006761952780000
5 1
    -0.007991398740000     0.000000000000000    -0.000000000000000
     0.000000000000000    -0.007991398740000     0.000000000000000
    -0.000000000000000     0.000000000000000     0.000771946970000
5 2
    -0.009959521200000     0.000000000000000     0.000000000000000
     0.000000000000000    -0.001131556310000     0.000000000000000
     0.000000000000000     0.000000000000000     0.000031709040000
5 3
    -0.003338577560000     0.003822620860000    -0.000000000000000
     0.003822620860000    -0.007752499950000     0.000000000000000
    -0.000000000000000     0.000000000000000     0.000031709040000
5 4
    -0.003338577560000    -0.003822620860000    -0.000000000000000
    -0.003822620860000    -0.007752499950000    -0.000000000000000
    -0.000000000000000    -0.000000000000000     0.000031709040000
5 5
    62.872046487679995    -0.000014653420000     0.000000000000000
    -0.000014653420000    62.872065104729998    -0.000000000000000
     0.000000000000000    -0.000000000000000    14.406280583009998
5 6
    -9.150243441450000    -0.000001080990000     0.000000000000000
    -0.000001080990000     4.436757222760000    -0.000000000000000
     0.000000000000000    -0.000000000000000     0.786275132120000
5 7
     1.040003303270000     5.883345487580000    -0.000000000000000
     5.883345487580000    -5.753495287240000    -0.000000000000000
    -0.000000000000000    -0.000000000000000     0.786275132120000
5 8
     1.040008828330000    -5.883342845160000    -0.000000000000000
    -5.883342845160000    -5.753495287240000     0.000000000000000
    -0.000000000000000     0.000000000000000     0.786275132120000
5 9
     0.009509829360000    -0.000000000000000     0.000000000000000
    -0.000000000000000     0.009509829360000    -0.000000000000000
     0.000000000000000    -0.000000000000000    -0.006183503020000
5 10
    -0.013564863070000    -0.000000000000000    -0.000000000000000
    -0.000000000000000     0.001749041820000     0.000884610150000
    -0.000000000000000     0.000884610150000     0.003770733340000
5 11
    -0.002079464430000     0.006631152990000    -0.000766061580000
     0.006631152990000    -0.009736476930000    -0.000442365130000
    -0.000766061580000    -0.000442365130000     0.003770733340000
5 12
    -0.002079464430000    -0.006631152990000     0.000766061580000
    -0.006631152990000    -0.009736476930000    -0.000442365130000
     0.000766061580000    -0.000442365130000     0.003770733340000
5 13
     0.009509829360000    -0.000000000000000    -0.000000000000000
    -0.000000000000000     0.009509829360000     0.000000000000000
    -0.000000000000000     0.000000000000000    -0.006183503020000
5 14
    -0.013564863070000    -0.000000000000000     0.000000000000000
    -0.000000000000000     0.001749041820000    -0.000884610150000
     0.000000000000000    -0.000884610150000     0.003770733340000
5 15
    -0.002079464430000     0.006631152990000     0.000766061580000
     0.006631152990000    -0.009736476930000     0.000442365130000
     0.000766061580000     0.000442365130000     0.003770733340000
5 16
    -0.002079464430000    -0.006631152990000    -0.000766061580000
    -0.006631152990000    -0.009736476930000     0.000442365130000
    -0.000766061580000     0.000442365130000     0.003770733340000
5 17
    -0.009049808060000    -0.000000000000000     0.000000000000000
    -0.000000000000000     0.002435590580000     0.000000000000000
     0.000000000000000    -0.000000000000000    -0.000545299400000
5 18
    -0.003289332460000     0.000000000000000    -0.000000000000000
     0.000000000000000    -0.003289332460000    -0.000000000000000