       N       E                     dE             d eps       ncg     rms          rms(c)
DAV:   1    -0.187118871814E+04   -0.18712E+04   -0.89773E+04  2624   0.938E+02
DAV:   2    -0.257938440661E+04   -0.70820E+03   -0.65453E+03  2128   0.290E+02
DAV:   3    -0.262119705803E+04   -0.41813E+02   -0.41104E+02  2816   0.644E+01
DAV:   4    -0.262276160141E+04   -0.15645E+01   -0.15510E+01  2992   0.122E+01
DAV:   5    -0.262282175180E+04   -0.60150E-01   -0.59938E-01  2736   0.215E+00    0.130E+02
RMM:   6    -0.124064498380E+04    0.13822E+04   -0.38847E+02  1792   0.502E+01    0.770E+01
RMM:   7    -0.305724133397E+03    0.93492E+03   -0.15530E+03  1802   0.838E+01    0.247E+01
RMM:   8    -0.314645624899E+03   -0.89215E+01   -0.44210E+01  1792   0.177E+01    0.131E+01
RMM:   9    -0.294748570237E+03    0.19897E+02   -0.72708E+01  1792   0.156E+01    0.240E+00
RMM:  10    -0.295458273071E+03   -0.70970E+00   -0.18706E+00  1796   0.349E+00    0.244E+00
RMM:  11    -0.295249000721E+03    0.20927E+00   -0.11510E+00  1792   0.235E+00    0.533E-01
RMM:  12    -0.295311203553E+03   -0.62203E-01   -0.77074E-02  1797   0.784E-01    0.234E-01
RMM:  13    -0.295312356491E+03   -0.11529E-02   -0.60590E-03  1792   0.203E-01    0.756E-02
RMM:  14    -0.295312662975E+03   -0.30648E-03   -0.65821E-04  1792   0.680E-02    0.270E-02
RMM:  15    -0.295312687977E+03   -0.25003E-04   -0.80682E-05  1793   0.247E-02    0.954E-03
RMM:  16    -0.295312695197E+03   -0.72192E-05   -0.93037E-06  1686   0.938E-03    0.204E-03
RMM:  17    -0.295312695952E+03   -0.75592E-06   -0.66509E-07  1284   0.229E-03
   1 F= -.19260889E+03 E0= -.19260889E+03  d E =0.000000E+00  mag=    -0.0000
 Linear response reoptimize wavefunctions
DAV:   1    -0.295312695923E+03   -0.10270E+03   -0.33617E-07  2336   0.150E-03
DAV:   2    -0.295312695925E+03   -0.17462E-08   -0.16885E-08  1776   0.294E-04
DAV:   3    -0.295312695925E+03   -0.20827E-09   -0.68116E-10  1760   0.774E-05
 Linear response DOF=            4
 Linear response progress:
  Degree of freedom:   1/  4
       N       E                     dE             d eps       ncg     rms          rms(c)
RMM:   1    -0.156473181210E+00   -0.15647E+00    0.30316E-02 11940   0.956E-01
RMM:   2    -0.128761612111E+00    0.27712E-01   -0.78089E-03  6919   0.209E-01    0.247E-01
RMM:   3    -0.127959829718E+00    0.80178E-03   -0.21327E-03  7871   0.860E-02    0.114E-01
RMM:   4    -0.128344917013E+00   -0.38509E-03   -0.19399E-04  8299   0.369E-02    0.420E-02
RMM:   5    -0.128612459522E+00   -0.26754E-03    0.65030E-05  8430   0.181E-02    0.815E-03
RMM:   6    -0.128609341457E+00    0.31181E-05   -0.15440E-04  8791   0.102E-02    0.148E-03
RMM:   7    -0.128602244745E+00    0.70967E-05   -0.12266E-04  8953   0.949E-03    0.532E-04
RMM:   8    -0.128598177764E+00    0.40670E-05   -0.10696E-04  8922   0.946E-03    0.207E-04
 Linear response progress:
  Degree of freedom:   2/  4
       N       E                     dE             d eps       ncg     rms          rms(c)
RMM:   1    -0.125306091943E+00   -0.12531E+00    0.61443E-03  3652   0.691E-01
RMM:   2    -0.122603714818E+00    0.27024E-02   -0.24700E-03  2835   0.119E-01    0.171E-01
RMM:   3    -0.122447242088E+00    0.15647E-03   -0.41036E-04  2837   0.447E-02    0.904E-02
RMM:   4    -0.122640253122E+00   -0.19301E-03   -0.33257E-04  2927   0.391E-02    0.146E-02
RMM:   5    -0.122507382865E+00    0.13287E-03   -0.99055E-05  3407   0.139E-02    0.236E-03
RMM:   6    -0.122497974998E+00    0.94079E-05   -0.89922E-05  3549   0.106E-02    0.684E-04
RMM:   7    -0.122490604323E+00    0.73707E-05   -0.89272E-05  3577   0.104E-02    0.270E-04
RMM:   8    -0.122490560397E+00    0.43926E-07   -0.90242E-05  3583   0.104E-02    0.157E-04
 Linear response progress:
  Degree of freedom:   3/  4
       N       E                     dE             d eps       ncg     rms          rms(c)
RMM:   1    -0.156555960799E+00   -0.15656E+00    0.29364E-02 11899   0.957E-01
RMM:   2    -0.128486909175E+00    0.28069E-01   -0.64248E-03  6964   0.209E-01    0.247E-01
RMM:   3    -0.127922293174E+00    0.56462E-03   -0.30470E-03  7869   0.861E-02    0.114E-01
RMM:   4    -0.128228884351E+00   -0.30659E-03   -0.26869E-04  8295   0.368E-02    0.420E-02
RMM:   5    -0.128489461353E+00   -0.26058E-03    0.59724E-05  8485   0.179E-02    0.814E-03
RMM:   6    -0.128480798495E+00    0.86629E-05   -0.12653E-04  8795   0.982E-03    0.150E-03
RMM:   7    -0.128458142130E+00    0.22656E-04    0.47765E-05  8948   0.907E-03    0.527E-04
RMM:   8    -0.128452865432E+00    0.52767E-05    0.64577E-05  8926   0.904E-03    0.196E-04
 Linear response progress:
  Degree of freedom:   4/  4
       N       E                     dE             d eps       ncg     rms          rms(c)
RMM:   1    -0.125443619978E+00   -0.12544E+00    0.55091E-03  3663   0.692E-01
RMM:   2    -0.122707559806E+00    0.27361E-02   -0.24271E-03  2808   0.119E-01    0.171E-01
RMM:   3    -0.122547112347E+00    0.16045E-03   -0.39186E-04  2804   0.448E-02    0.903E-02
RMM:   4    -0.122739127923E+00   -0.19202E-03   -0.31672E-04  2885   0.391E-02    0.146E-02
RMM:   5    -0.122610191991E+00    0.12894E-03   -0.77912E-05  3393   0.133E-02    0.238E-03
RMM:   6    -0.122600961588E+00    0.92304E-05   -0.71013E-05  3575   0.993E-03    0.644E-04
RMM:   7    -0.122593975409E+00    0.69862E-05   -0.68173E-05  3586   0.973E-03    0.254E-04
RMM:   8    -0.122595264152E+00   -0.12887E-05   -0.70404E-05  3598   0.973E-03    0.135E-04
 Linear response finished
