    8    8  100    2
  0.5414167E+01  0.3511887E-09  0.3511887E-09  0.3511887E-09  0.1500000E-16
   1.0000000000000000E-004
  CAR 
 unknown system                          
     32     35     28
 
  0.3742002E-15  0.3742002E-15  0.3742002E-15  0.1953125E-02
    1      -11.612389    -11.612382   1.000000   1.000000
    2       -2.276297     -2.276289   1.000000   1.000000
    3       -2.276235     -2.276228   1.000000   1.000000
    4       -2.276235     -2.276227   1.000000   1.000000
    5       -2.276228     -2.276220   1.000000   1.000000
    6       -2.276161     -2.276154   1.000000   1.000000
    7       -2.276161     -2.276153   1.000000   1.000000
    8        4.296813      4.296821   1.000000   1.000000
    9        4.296813      4.296821   1.000000   1.000000
   10        4.296834      4.296842   1.000000   1.000000
   11        4.296867      4.296875   1.000000   1.000000
   12        4.296887      4.296895   1.000000   1.000000
   13        4.296888      4.296896   1.000000   1.000000
   14       11.207008     11.207018   1.000000   1.000000
   15       11.207008     11.207018   1.000000   1.000000
   16       11.207120     11.207129   1.000000   1.000000
   17       16.154595     16.154601   0.000000   0.000000
   18       16.154595     16.154601   0.000000   0.000000
   19       16.154611     16.154617   0.000000   0.000000
   20       16.154624     16.154630   0.000000   0.000000
   21       16.154624     16.154630   0.000000   0.000000
   22       16.154722     16.154728   0.000000   0.000000
   23       17.061265     17.061274   0.000000   0.000000
   24       17.061350     17.061359   0.000000   0.000000
   25       17.061350     17.061359   0.000000   0.000000
   26       26.784770     26.784779   0.000000   0.000000
   27       29.585575     29.585571   0.000000   0.000000
   28       29.585582     29.585595   0.000000   0.000000
 
  0.1250000E+00  0.3742002E-15  0.3742002E-15  0.1171875E-01
    1      -11.458509    -11.458501   1.000000   1.000000
    2       -4.344792     -4.344784   1.000000   1.000000
    3       -2.171082     -2.171074   1.000000   1.000000
    4       -2.171057     -2.171049   1.000000   1.000000
    5       -2.171044     -2.171036   1.000000   1.000000
    6       -2.170981     -2.170973   1.000000   1.000000
    7       -0.060575     -0.060567   1.000000   1.000000
    8        3.958134      3.958142   1.000000   1.000000
    9        3.958160      3.958168   1.000000   1.000000
   10        3.958171      3.958179   1.000000   1.000000
   11        3.958196      3.958204   1.000000   1.000000
   12        4.448095      4.448103   1.000000   1.000000
   13        4.448120      4.448129   1.000000   1.000000
   14       10.583872     10.583881   1.000000   1.000000
   15       10.583934     10.583943   1.000000   1.000000
   16       10.857704     10.857713   1.000000   1.000000
   17       15.701061     15.701068   0.000000   0.000000
   18       16.777571     16.777577   0.000000   0.000000
   19       16.777585     16.777591   0.000000   0.000000
   20       16.777601     16.777608   0.000000   0.000000
   21       16.777658     16.777665   0.000000   0.000000
   22       16.954531     16.954540   0.000000   0.000000
   23       16.957595     16.957600   0.000000   0.000000
   24       17.828608     17.828617   0.000000   0.000000
   25       17.828653     17.828662   0.000000   0.000000
   26       26.810573     26.810583   0.000000   0.000000
   27       29.034945     29.035121   0.000000   0.000000
   28       29.035079     29.036840   0.000000   0.000000
 
  0.2500000E+00  0.3742002E-15  0.3742002E-15  0.1171875E-01
    1      -10.997953    -10.997946   1.000000   1.000000
    2       -6.207366     -6.207358   1.000000   1.000000
    3       -1.880720     -1.880712   1.000000   1.000000
    4       -1.880692     -1.880684   1.000000   1.000000
    5       -1.880678     -1.880670   1.000000   1.000000
    6       -1.880610     -1.880602   1.000000   1.000000
    7        2.221122      2.221131   1.000000   1.000000
    8        3.169583      3.169591   1.000000   1.000000
    9        3.169601      3.169609   1.000000   1.000000
   10        3.169616      3.169624   1.000000   1.000000
   11        3.169633      3.169640   1.000000   1.000000
   12        4.901072      4.901080   1.000000   1.000000
   13        4.901098      4.901106   1.000000   1.000000
   14        9.284510      9.284519   1.000000   1.000000
   15        9.284557      9.284565   1.000000   1.000000
   16        9.872021      9.872030   1.000000   1.000000
   17       15.543713     15.543720   0.000000   0.000000
   18       16.646144     16.646153   0.000000   0.000000
   19       18.179593     18.179598   0.000000   0.000000
   20       18.422853     18.422860   0.000000   0.000000
   21       18.422865     18.422871   0.000000   0.000000
   22       18.422888     18.422895   0.000000   0.000000
   23       18.422938     18.422944   0.000000   0.000000
   24       19.538200     19.538209   0.000000   0.000000
   25       19.538230     19.538240   0.000000   0.000000
   26       26.315645     26.315654   0.000000   0.000000
   27       27.644760     27.644772   0.000000   0.000000
   28       27.644789     27.644801   0.000000   0.000000
 
  0.3750000E+00  0.3742002E-15  0.3742002E-15  0.1171875E-01
    1      -10.234037    -10.234030   1.000000   1.000000
    2       -7.825308     -7.825300   1.000000   1.000000
    3       -1.511245     -1.511237   1.000000   1.000000
    4       -1.511214     -1.511206   1.000000   1.000000
    5       -1.511197     -1.511189   1.000000   1.000000
    6       -1.511120     -1.511112   1.000000   1.000000
    7        2.368091      2.368098   1.000000   1.000000
    8        2.368099      2.368106   1.000000   1.000000
    9        2.368123      2.368131   1.000000   1.000000
   10        2.368130      2.368137   1.000000   1.000000
   11        4.465842      4.465851   1.000000   1.000000
   12        5.645507      5.645515   1.000000   1.000000
   13        5.645535      5.645544   1.000000   1.000000
   14        7.903556      7.903564   1.000000   1.000000
   15        7.903593      7.903602   1.000000   1.000000
   16        8.397272      8.397281   1.000000   1.000000
   17       15.627135     15.627142   0.000000   0.000000
   18       16.256378     16.256386   0.000000   0.000000
   19       19.875248     19.875254   0.000000   0.000000
   20       20.623422     20.623430   0.000000   0.000000
   21       20.623431     20.623439   0.000000   0.000000
   22       20.623469     20.623476   0.000000   0.000000
   23       20.623512     20.623520   0.000000   0.000000
   24       21.588095     21.588105   0.000000   0.000000
   25       21.588119     21.588130   0.000000   0.000000
   26       24.456731     24.456738   0.000000   0.000000
   27       25.781968     25.781980   0.000000   0.000000
   28       25.781993     25.782004   0.000000   0.000000
 
  0.5000000E+00  0.3742002E-15  0.3742002E-15  0.5859375E-02
    1       -9.173111     -9.173104   1.000000   1.000000
    2       -9.173007     -9.172999   1.000000   1.000000
    3       -1.317766     -1.317758   1.000000   1.000000
    4       -1.317732     -1.317724   1.000000   1.000000
    5       -1.317714     -1.317706   1.000000   1.000000
    6       -1.317630     -1.317622   1.000000   1.000000
    7        2.011131      2.011138   1.000000   1.000000
    8        2.011133      2.011140   1.000000   1.000000
    9        2.011166      2.011173   1.000000   1.000000
   10        2.011167      2.011174   1.000000   1.000000
   11        6.558329      6.558338   1.000000   1.000000
   12        6.558363      6.558372   1.000000   1.000000
   13        6.658555      6.658564   1.000000   1.000000
   14        6.658587      6.658596   1.000000   1.000000
   15        6.658678      6.658686   1.000000   1.000000
   16        6.658710      6.658718   1.000000   1.000000
   17       15.885143     15.885151   0.000000   0.000000
   18       15.885208     15.885215   0.000000   0.000000
   19       22.037972     22.037978   0.000000   0.000000
   20       22.038004     22.038010   0.000000   0.000000
   21       22.265300     22.265308   0.000000   0.000000
   22       22.265307     22.265314   0.000000   0.000000
   23       22.265379     22.265386   0.000000   0.000000
   24       22.265420     22.265428   0.000000   0.000000
   25       23.705186     23.705197   0.000000   0.000000
   26       23.705209     23.705220   0.000000   0.000000
   27       23.705211     23.705222   0.000000   0.000000
   28       23.705234     23.705245   0.000000   0.000000
 
  0.1250000E+00  0.1250000E+00  0.3742002E-15  0.2343750E-01
    1      -11.304839    -11.304832   1.000000   1.000000
    2       -4.216077     -4.216069   1.000000   1.000000
    3       -4.216034     -4.216027   1.000000   1.000000
    4       -2.147571     -2.147564   1.000000   1.000000
    5       -2.004393     -2.004386   1.000000   1.000000
    6       -0.008374     -0.008366   1.000000   1.000000
    7       -0.008340     -0.008332   1.000000   1.000000
    8        2.895943      2.895950   1.000000   1.000000
    9        4.073567      4.073574   1.000000   1.000000
   10        4.073580      4.073588   1.000000   1.000000
   11        4.176546      4.176553   1.000000   1.000000
   12        4.176597      4.176605   1.000000   1.000000
   13        4.558703      4.558711   1.000000   1.000000
   14        9.680218      9.680227   1.000000   1.000000
   15       10.008339     10.008348   1.000000   1.000000
   16       11.013951     11.013960   1.000000   1.000000
   17       16.343973     16.343980   0.000000   0.000000
   18       16.343994     16.344001   0.000000   0.000000
   19       16.397304     16.397310   0.000000   0.000000
   20       17.384331     17.384340   0.000000   0.000000
   21       17.554389     17.554395   0.000000   0.000000
   22       17.554440     17.554446   0.000000   0.000000
   23       18.015341     18.015350   0.000000   0.000000
   24       18.215472     18.215479   0.000000   0.000000
   25       18.331260     18.331269   0.000000   0.000000
   26       26.880998     26.881008   0.000000   0.000000
   27       28.468318     28.468338   0.000000   0.000000
   28       28.468364     28.468380   0.000000   0.000000
 
  0.2500000E+00  0.1250000E+00  0.3742002E-15  0.4687500E-01
    1      -10.844896    -10.844889   1.000000   1.000000
    2       -6.067162     -6.067155   1.000000   1.000000
    3       -3.840236     -3.840228   1.000000   1.000000
    4       -2.034690     -2.034682   1.000000   1.000000
    5       -1.630542     -1.630534   1.000000   1.000000
    6        0.079518      0.079526   1.000000   1.000000
    7        1.812688      1.812695   1.000000   1.000000
    8        2.135719      2.135728   1.000000   1.000000
    9        3.184688      3.184696   1.000000   1.000000
   10        3.603137      3.603145   1.000000   1.000000
   11        4.483537      4.483545   1.000000   1.000000
   12        4.502086      4.502094   1.000000   1.000000
   13        4.780545      4.780553   1.000000   1.000000
   14        8.322641      8.322650   1.000000   1.000000
   15        8.770729      8.770738   1.000000   1.000000
   16       10.391421     10.391430   1.000000   1.000000
   17       16.198201     16.198208   0.000000   0.000000
   18       17.245708     17.245714   0.000000   0.000000
   19       17.266091     17.266100   0.000000   0.000000
   20       18.033521     18.033528   0.000000   0.000000
   21       18.736016     18.736022   0.000000   0.000000
   22       19.123320     19.123326   0.000000   0.000000
   23       19.522164     19.522173   0.000000   0.000000
   24       19.629448     19.629458   0.000000   0.000000
   25       20.324218     20.324225   0.000000   0.000000
   26       26.529290     26.529299   0.000000   0.000000
   27       26.928110     26.928121   0.000000   0.000000
   28       26.996843     26.996855   0.000000   0.000000
 
  0.3750000E+00  0.1250000E+00  0.3742002E-15  0.4687500E-01
    1      -10.082191    -10.082184   1.000000   1.000000
    2       -7.678992     -7.678985   1.000000   1.000000
    3       -3.259357     -3.259349   1.000000   1.000000
    4       -2.102047     -2.102039   1.000000   1.000000
    5       -1.082877     -1.082869   1.000000   1.000000
    6       -0.018708     -0.018700   1.000000   1.000000
    7        1.202447      1.202453   1.000000   1.000000
    8        2.182845      2.182852   1.000000   1.000000
    9        3.239551      3.239559   1.000000   1.000000
   10        3.964422      3.964429   1.000000   1.000000
   11        4.018908      4.018916   1.000000   1.000000
   12        5.224987      5.224995   1.000000   1.000000
   13        5.892911      5.892919   1.000000   1.000000
   14        6.904332      6.904340   1.000000   1.000000
   15        7.428259      7.428268   1.000000   1.000000
   16        9.111603      9.111612   1.000000   1.000000
   17       16.285891     16.285898   0.000000   0.000000
   18       16.900783     16.900792   0.000000   0.000000
   19       19.031439     19.031446   0.000000   0.000000
   20       20.327055     20.327062   0.000000   0.000000
   21       20.375915     20.375921   0.000000   0.000000
   22       21.065321     21.065328   0.000000   0.000000
   23       21.355009     21.355019   0.000000   0.000000
   24       21.556912     21.556922   0.000000   0.000000
   25       22.672167     22.672175   0.000000   0.000000
   26       24.818465     24.818472   0.000000   0.000000
   27       24.960468     24.960479   0.000000   0.000000
   28       25.198875     25.198886   0.000000   0.000000
 
  0.5000000E+00  0.1250000E+00  0.3742002E-15  0.2343750E-01
    1       -9.023309     -9.023302   1.000000   1.000000
    2       -9.023204     -9.023197   1.000000   1.000000
    3       -2.588411     -2.588402   1.000000   1.000000
    4       -2.588317     -2.588309   1.000000   1.000000
    5       -0.469206     -0.469197   1.000000   1.000000
    6       -0.469162     -0.469154   1.000000   1.000000
    7        1.401342      1.401349   1.000000   1.000000
    8        1.401376      1.401383   1.000000   1.000000
    9        3.419348      3.419355   1.000000   1.000000
   10        3.419394      3.419401   1.000000   1.000000
   11        5.518245      5.518253   1.000000   1.000000
   12        5.518298      5.518306   1.000000   1.000000
   13        6.215101      6.215109   1.000000   1.000000
   14        6.215136      6.215144   1.000000   1.000000
   15        7.485343      7.485351   1.000000   1.000000
   16        7.485398      7.485406   1.000000   1.000000
   17       16.541750     16.541758   0.000000   0.000000
   18       16.541814     16.541822   0.000000   0.000000
   19       21.083623     21.083630   0.000000   0.000000
   20       21.083673     21.083680   0.000000   0.000000
   21       22.433992     22.433998   0.000000   0.000000
   22       22.434036     22.434042   0.000000   0.000000
   23       22.742968     22.742976   0.000000   0.000000
   24       22.743007     22.743016   0.000000   0.000000
   25       23.315768     23.315778   0.000000   0.000000
   26       23.315790     23.315800   0.000000   0.000000
   27       23.707486     23.707497   0.000000   0.000000
   28       23.707512     23.707523   0.000000   0.000000
 
  0.2500000E+00  0.2500000E+00  0.3742002E-15  0.2343750E-01
    1      -10.386997    -10.386990   1.000000   1.000000
    2       -5.651862     -5.651855   1.000000   1.000000
    3       -5.651822     -5.651814   1.000000   1.000000
    4       -2.364147     -2.364139   1.000000   1.000000
    5       -1.192135     -1.192127   1.000000   1.000000
    6        0.923127      0.923134   1.000000   1.000000
    7        1.775462      1.775471   1.000000   1.000000
    8        1.775464      1.775473   1.000000   1.000000
    9        3.553616      3.553623   1.000000   1.000000
   10        3.553618      3.553625   1.000000   1.000000
   11        4.656096      4.656103   1.000000   1.000000
   12        4.656190      4.656198   1.000000   1.000000
   13        5.319397      5.319406   1.000000   1.000000
   14        6.961241      6.961249   1.000000   1.000000
   15        7.622497      7.622505   1.000000   1.000000
   16       10.385897     10.385906   1.000000   1.000000
   17       17.119468     17.119474   0.000000   0.000000
   18       17.899370     17.899378   0.000000   0.000000
   19       17.899378     17.899386   0.000000   0.000000
   20       18.327773     18.327783   0.000000   0.000000
   21       19.872358     19.872368   0.000000   0.000000
   22       20.026463     20.026473   0.000000   0.000000
   23       20.170907     20.170913   0.000000   0.000000
   24       20.170965     20.170971   0.000000   0.000000
   25       22.658385     22.658393   0.000000   0.000000
   26       25.381796     25.381807   0.000000   0.000000
   27       25.381874     25.381885   0.000000   0.000000
   28       26.708494     26.708502   0.000000   0.000000
 
  0.3750000E+00  0.2500000E+00  0.3742002E-15  0.4687500E-01
    1       -9.628155     -9.628148   1.000000   1.000000
    2       -7.243108     -7.243101   1.000000   1.000000
    3       -4.980344     -4.980336   1.000000   1.000000
    4       -3.131270     -3.131262   1.000000   1.000000
    5       -0.556777     -0.556769   1.000000   1.000000
    6        0.883061      0.883068   1.000000   1.000000
    7        1.078456      1.078465   1.000000   1.000000
    8        2.460579      2.460587   1.000000   1.000000
    9        3.100272      3.100280   1.000000   1.000000
   10        4.231206      4.231213   1.000000   1.000000
   11        4.821099      4.821106   1.000000   1.000000
   12        5.478669      5.478677   1.000000   1.000000
   13        5.594084      5.594092   1.000000   1.000000
   14        6.298256      6.298264   1.000000   1.000000
   15        6.343978      6.343986   1.000000   1.000000
   16        9.545831      9.545840   1.000000   1.000000
   17       17.973521     17.973529   0.000000   0.000000
   18       18.151645     18.151652   0.000000   0.000000
   19       18.426829     18.426838   0.000000   0.000000
   20       20.199221     20.199229   0.000000   0.000000
   21       20.858454     20.858464   0.000000   0.000000
   22       21.373389     21.373396   0.000000   0.000000
   23       21.534676     21.534683   0.000000   0.000000
   24       21.547649     21.547659   0.000000   0.000000
   25       23.912765     23.912775   0.000000   0.000000
   26       24.093589     24.093598   0.000000   0.000000
   27       24.773919     24.773928   0.000000   0.000000
   28       25.503129     25.503145   0.000000   0.000000
 
  0.5000000E+00  0.2500000E+00  0.3742002E-15  0.2343750E-01
    1       -8.575926     -8.575919   1.000000   1.000000
    2       -8.575821     -8.575813   1.000000   1.000000
    3       -4.099679     -4.099671   1.000000   1.000000
    4       -4.099576     -4.099568   1.000000   1.000000
    5        0.234952      0.234960   1.000000   1.000000
    6        0.234992      0.235000   1.000000   1.000000
    7        1.497920      1.497928   1.000000   1.000000
    8        1.497962      1.497969   1.000000   1.000000
    9        4.313307      4.313316   1.000000   1.000000
   10        4.313358      4.313366   1.000000   1.000000
   11        5.180131      5.180139   1.000000   1.000000
   12        5.180170      5.180178   1.000000   1.000000
   13        5.190844      5.190852   1.000000   1.000000
   14        5.190904      5.190912   1.000000   1.000000
   15        8.073249      8.073257   1.000000   1.000000
   16        8.073303      8.073312   1.000000   1.000000
   17       18.183980     18.183988   0.000000   0.000000
   18       18.184041     18.184049   0.000000   0.000000
   19       19.965055     19.965062   0.000000   0.000000
   20       19.965102     19.965109   0.000000   0.000000
   21       21.926245     21.926254   0.000000   0.000000
   22       21.926301     21.926310   0.000000   0.000000
   23       22.715704     22.715713   0.000000   0.000000
   24       22.715738     22.715747   0.000000   0.000000
   25       23.714647     23.714657   0.000000   0.000000
   26       23.714678     23.714688   0.000000   0.000000
   27       23.928671     23.928679   0.000000   0.000000
   28       23.928697     23.928705   0.000000   0.000000
 
  0.3750000E+00  0.3750000E+00  0.3742002E-15  0.2343750E-01
    1       -8.876778     -8.876771   1.000000   1.000000
    2       -6.528065     -6.528058   1.000000   1.000000
    3       -6.528027     -6.528019   1.000000   1.000000
    4       -4.381848     -4.381840   1.000000   1.000000
    5        0.148773      0.148781   1.000000   1.000000
    6        1.256471      1.256478   1.000000   1.000000
    7        2.049913      2.049921   1.000000   1.000000
    8        2.049915      2.049923   1.000000   1.000000
    9        3.086199      3.086207   1.000000   1.000000
   10        3.086203      3.086210   1.000000   1.000000
   11        4.297973      4.297981   1.000000   1.000000
   12        5.117638      5.117646   1.000000   1.000000
   13        6.488215      6.488223   1.000000   1.000000
   14        6.661302      6.661310   1.000000   1.000000
   15        6.661409      6.661418   1.000000   1.000000
   16        9.292631      9.292640   1.000000   1.000000
   17       18.259875     18.259882   0.000000   0.000000
   18       19.857673     19.857682   0.000000   0.000000
   19       20.205752     20.205761   0.000000   0.000000
   20       20.205753     20.205761   0.000000   0.000000
   21       20.504876     20.504885   0.000000   0.000000
   22       21.057643     21.057650   0.000000   0.000000
   23       21.057688     21.057696   0.000000   0.000000
   24       22.068106     22.068115   0.000000   0.000000
   25       24.305293     24.305303   0.000000   0.000000
   26       24.444947     24.444956   0.000000   0.000000
   27       24.444971     24.444979   0.000000   0.000000
   28       26.010347     26.010351   0.000000   0.000000
 
  0.5000000E+00  0.3750000E+00  0.3742002E-15  0.2343750E-01
    1       -7.837676     -7.837669   1.000000   1.000000
    2       -7.837571     -7.837563   1.000000   1.000000
    3       -5.557060     -5.557053   1.000000   1.000000
    4       -5.556955     -5.556948   1.000000   1.000000
    5        1.033470      1.033478   1.000000   1.000000
    6        1.033512      1.033520   1.000000   1.000000
    7        2.043889      2.043897   1.000000   1.000000
    8        2.043933      2.043940   1.000000   1.000000
    9        3.106333      3.106341   1.000000   1.000000
   10        3.106381      3.106389   1.000000   1.000000
   11        3.993938      3.993945   1.000000   1.000000
   12        3.993979      3.993987   1.000000   1.000000
   13        6.816773      6.816781   1.000000   1.000000
   14        6.816834      6.816842   1.000000   1.000000
   15        8.272272      8.272281   1.000000   1.000000
   16        8.272327      8.272336   1.000000   1.000000
   17       19.386562     19.386569   0.000000   0.000000
   18       19.386610     19.386617   0.000000   0.000000
   19       20.228648     20.228658   0.000000   0.000000
   20       20.228707     20.228716   0.000000   0.000000
   21       20.590730     20.590739   0.000000   0.000000
   22       20.590783     20.590791   0.000000   0.000000
   23       22.533931     22.533941   0.000000   0.000000
   24       22.533972     22.533982   0.000000   0.000000
   25       23.851411     23.851421   0.000000   0.000000
   26       23.851458     23.851468   0.000000   0.000000
   27       25.553812     25.553820   0.000000   0.000000
   28       25.553837     25.553845   0.000000   0.000000
 
  0.5000000E+00  0.5000000E+00  0.3742002E-15  0.5859375E-02
    1       -6.822365     -6.822358   1.000000   1.000000
    2       -6.822223     -6.822215   1.000000   1.000000
    3       -6.822221     -6.822213   1.000000   1.000000
    4       -6.822154     -6.822147   1.000000   1.000000
    5        1.994321      1.994329   1.000000   1.000000
    6        1.994325      1.994334   1.000000   1.000000
    7        1.994368      1.994376   1.000000   1.000000
    8        1.994371      1.994379   1.000000   1.000000
    9        2.906434      2.906441   1.000000   1.000000
   10        2.906466      2.906474   1.000000   1.000000
   11        2.906476      2.906483   1.000000   1.000000
   12        2.906519      2.906526   1.000000   1.000000
   13        7.899927      7.899935   1.000000   1.000000
   14        7.899970      7.899979   1.000000   1.000000
   15        7.900015      7.900024   1.000000   1.000000
   16        7.900103      7.900112   1.000000   1.000000
   17       19.606050     19.606057   0.000000   0.000000
   18       19.606130     19.606137   0.000000   0.000000
   19       19.606138     19.606145   0.000000   0.000000
   20       19.606173     19.606181   0.000000   0.000000
   21       21.902284     21.902294   0.000000   0.000000
   22       21.902287     21.902297   0.000000   0.000000
   23       21.902339     21.902349   0.000000   0.000000
   24       21.902345     21.902355   0.000000   0.000000
   25       24.614772     24.614782   0.000000   0.000000
   26       24.614817     24.614827   0.000000   0.000000
   27       24.614858     24.614868   0.000000   0.000000
   28       24.614908     24.614918   0.000000   0.000000
 
  0.1250000E+00  0.1250000E+00  0.1250000E+00  0.1562500E-01
    1      -11.151375    -11.151367   1.000000   1.000000
    2       -4.091309     -4.091301   1.000000   1.000000
    3       -4.091243     -4.091235   1.000000   1.000000
    4       -4.091243     -4.091235   1.000000   1.000000
    5        0.000689      0.000697   1.000000   1.000000
    6        0.000734      0.000743   1.000000   1.000000
    7        0.000734      0.000743   1.000000   1.000000
    8        3.135673      3.135681   1.000000   1.000000
    9        3.135726      3.135734   1.000000   1.000000
   10        3.135726      3.135734   1.000000   1.000000
   11        4.705934      4.705942   1.000000   1.000000
   12        4.705934      4.705942   1.000000   1.000000
   13        4.705978      4.705986   1.000000   1.000000
   14        8.598894      8.598902   1.000000   1.000000
   15       10.481587     10.481596   1.000000   1.000000
   16       10.481587     10.481596   1.000000   1.000000
   17       16.396281     16.396288   0.000000   0.000000
   18       16.396281     16.396288   0.000000   0.000000
   19       16.396326     16.396332   0.000000   0.000000
   20       18.017275     18.017284   0.000000   0.000000
   21       18.017275     18.017284   0.000000   0.000000
   22       18.551979     18.551985   0.000000   0.000000
   23       18.551979     18.551985   0.000000   0.000000
   24       18.552039     18.552045   0.000000   0.000000
   25       18.580587     18.580596   0.000000   0.000000
   26       26.984774     26.984784   0.000000   0.000000
   27       28.231951     28.231961   0.000000   0.000000
   28       28.231955     28.231970   0.000000   0.000000
 
  0.2500000E+00  0.1250000E+00  0.1250000E+00  0.4687500E-01
    1      -10.692077    -10.692070   1.000000   1.000000
    2       -5.928352     -5.928344   1.000000   1.000000
    3       -3.734016     -3.734008   1.000000   1.000000
    4       -3.733966     -3.733958   1.000000   1.000000
    5       -0.121419     -0.121411   1.000000   1.000000
    6       -0.121406     -0.121398   1.000000   1.000000
    7        1.867584      1.867593   1.000000   1.000000
    8        2.279885      2.279892   1.000000   1.000000
    9        2.279937      2.279945   1.000000   1.000000
   10        3.980078      3.980086   1.000000   1.000000
   11        4.647843      4.647851   1.000000   1.000000
   12        4.647860      4.647868   1.000000   1.000000
   13        5.146300      5.146308   1.000000   1.000000
   14        7.160635      7.160644   1.000000   1.000000
   15        9.315192      9.315201   1.000000   1.000000
   16       10.179120     10.179129   1.000000   1.000000
   17       16.462905     16.462912   0.000000   0.000000
   18       17.317219     17.317226   0.000000   0.000000
   19       17.317250     17.317256   0.000000   0.000000
   20       17.763626     17.763635   0.000000   0.000000
   21       19.493998     19.494008   0.000000   0.000000
   22       19.498752     19.498758   0.000000   0.000000
   23       19.670949     19.670958   0.000000   0.000000
   24       20.559030     20.559038   0.000000   0.000000
   25       20.559063     20.559070   0.000000   0.000000
   26       26.755507     26.755512   0.000000   0.000000
   27       26.833044     26.833032   0.000000   0.000000
   28       26.840370     26.840189   0.000000   0.000000
 
  0.3750000E+00  0.1250000E+00  0.1250000E+00  0.4687500E-01
    1       -9.930593     -9.930586   1.000000   1.000000
    2       -7.533294     -7.533286   1.000000   1.000000
    3       -3.227392     -3.227384   1.000000   1.000000
    4       -3.227327     -3.227319   1.000000   1.000000
    5       -0.624592     -0.624584   1.000000   1.000000
    6       -0.624576     -0.624568   1.000000   1.000000
    7        2.040317      2.040324   1.000000   1.000000
    8        2.040397      2.040404   1.000000   1.000000
    9        3.245195      3.245203   1.000000   1.000000
   10        4.215170      4.215178   1.000000   1.000000
   11        4.215173      4.215180   1.000000   1.000000
   12        5.569591      5.569599   1.000000   1.000000
   13        5.743444      5.743452   1.000000   1.000000
   14        5.868080      5.868088   1.000000   1.000000
   15        8.025414      8.025422   1.000000   1.000000
   16        9.056051      9.056060   1.000000   1.000000
   17       16.662819     16.662826   0.000000   0.000000
   18       17.375458     17.375467   0.000000   0.000000