       N       E                     dE             d eps       ncg     rms          rms(c)
DAV:   1    -0.478708090401E+02   -0.47871E+02   -0.15350E+04  3984   0.927E+02
DAV:   2    -0.179379520341E+03   -0.13151E+03   -0.12520E+03  5148   0.227E+02
DAV:   3    -0.184665258523E+03   -0.52857E+01   -0.52415E+01  5264   0.403E+01
DAV:   4    -0.184746054214E+03   -0.80796E-01   -0.80523E-01  4996   0.528E+00
DAV:   5    -0.184748122546E+03   -0.20683E-02   -0.20671E-02  5260   0.792E-01    0.483E+01
DAV:   6    -0.102463940070E+03    0.82284E+02   -0.46218E+01  4292   0.334E+01    0.257E+01
DAV:   7    -0.722775493655E+02    0.30186E+02   -0.59591E+01  4656   0.382E+01    0.347E+00
DAV:   8    -0.725305268855E+02   -0.25298E+00   -0.18225E+00  4808   0.651E+00    0.130E+00
DAV:   9    -0.725704202278E+02   -0.39893E-01   -0.13450E-01  4596   0.257E+00    0.242E-01
DAV:  10    -0.725814566146E+02   -0.11036E-01   -0.15200E-02  4592   0.894E-01    0.847E-02
DAV:  11    -0.725820442168E+02   -0.58760E-03   -0.36615E-04  4800   0.166E-01    0.518E-02
DAV:  12    -0.725823640831E+02   -0.31987E-03   -0.17095E-04  4416   0.108E-01    0.104E-02
DAV:  13    -0.725823727198E+02   -0.86367E-05   -0.10471E-05  4736   0.216E-02    0.190E-03
DAV:  14    -0.725823733837E+02   -0.66391E-06   -0.38505E-07  3104   0.483E-03
   1 F= -.59065351E+02 E0= -.59065351E+02  d E =-.590654E+02  mag=     0.0000
       N       E                     dE             d eps       ncg     rms          rms(c)
DAV:   1    -0.725572464091E+02    0.25126E-01   -0.18003E-02  4340   0.850E-01    0.104E-01
DAV:   2    -0.725570527869E+02    0.19362E-03   -0.33860E-04  4864   0.936E-02    0.569E-02
DAV:   3    -0.725569669499E+02    0.85837E-04   -0.13416E-04  4292   0.582E-02    0.353E-03
DAV:   4    -0.725569671722E+02   -0.22232E-06   -0.16808E-06  3964   0.749E-03
   2 F= -.59097880E+02 E0= -.59097880E+02  d E =-.325283E-01  mag=     0.0000
       N       E                     dE             d eps       ncg     rms          rms(c)
DAV:   1    -0.724670106044E+02    0.89956E-01   -0.16333E-01  4228   0.257E+00    0.314E-01
DAV:   2    -0.724652328240E+02    0.17778E-02   -0.31048E-03  4780   0.284E-01    0.172E-01
DAV:   3    -0.724644311829E+02    0.80164E-03   -0.12107E-03  4216   0.176E-01    0.107E-02
DAV:   4    -0.724644295123E+02    0.16706E-05   -0.15289E-05  4628   0.221E-02    0.457E-03
DAV:   5    -0.724644297723E+02   -0.25994E-06   -0.55293E-07  2664   0.600E-03
   3 F= -.59178152E+02 E0= -.59178152E+02  d E =-.112801E+00  mag=     0.0000
       N       E                     dE             d eps       ncg     rms          rms(c)
DAV:   1    -0.722139342749E+02    0.25050E+00   -0.66236E-01  4216   0.524E+00    0.633E-01
DAV:   2    -0.722067898262E+02    0.71444E-02   -0.12740E-02  4680   0.579E-01    0.346E-01
DAV:   3    -0.722035494389E+02    0.32404E-02   -0.47988E-03  4212   0.353E-01    0.219E-02
DAV:   4    -0.722035388400E+02    0.10599E-04   -0.60939E-05  4644   0.444E-02    0.904E-03
DAV:   5    -0.722035376520E+02    0.11879E-05   -0.24348E-06  3980   0.113E-02    0.772E-04
DAV:   6    -0.722035375754E+02    0.76617E-07   -0.79065E-08  2340   0.175E-03
   4 F= -.59258429E+02 E0= -.59258429E+02  d E =-.193078E+00  mag=     0.0000
       N       E                     dE             d eps       ncg     rms          rms(c)
DAV:   1    -0.721293983145E+02    0.74139E-01   -0.34985E-02  4216   0.121E+00    0.145E-01
DAV:   2    -0.721290234083E+02    0.37491E-03   -0.64357E-04  4688   0.131E-01    0.793E-02
DAV:   3    -0.721288564632E+02    0.16695E-03   -0.25365E-04  4236   0.813E-02    0.494E-03
DAV:   4    -0.721288566647E+02   -0.20149E-06   -0.32303E-06  4296   0.102E-02
   5 F= -.59261279E+02 E0= -.59261279E+02  d E =-.195928E+00  mag=     0.0000
