PROCAR lm decomposed
# of k-points:   35         # of bands:   28         # of ions:    8

 k-point     1 :    0.00000000 0.00000000 0.00000000     weight = 0.00195313

band     1 # energy  -11.61238909 # occ.  1.00000000
 
ion      s     py     pz     px    dxy    dyz    dz2    dxz  x2-y2    tot
    1  0.073  0.000  0.000  0.000  0.000  0.000  0.000  0.000  0.000  0.073
    2  0.073  0.000  0.000  0.000  0.000  0.000  0.000  0.000  0.000  0.073
    3  0.073  0.000  0.000  0.000  0.000  0.000  0.000  0.000  0.000  0.073
    4  0.073  0.000  0.000  0.000  0.000  0.000  0.000  0.000  0.000  0.073
    5  0.073  0.000  0.000  0.000  0.000  0.000  0.000  0.000  0.000  0.073
    6  0.073  0.000  0.000  0.000  0.000  0.000  0.000  0.000  0.000  0.073
    7  0.073  0.000  0.000  0.000  0.000  0.000  0.000  0.000  0.000  0.073
    8  0.073  0.000  0.000  0.000  0.000  0.000  0.000  0.000  0.000  0.073
tot    0.585  0.000  0.000  0.000  0.000  0.000  0.000  0.000  0.000  0.585
 
band     2 # energy   -2.27629701 # occ.  1.00000000
 
ion      s     py     pz     px    dxy    dyz    dz2    dxz  x2-y2    tot
    1  0.298  0.001  0.001  0.001  0.000  0.000  0.000  0.000  0.000  0.301
    2  0.002  0.020  0.020  0.020  0.000  0.000  0.000  0.000  0.000  0.061
    3  0.018  0.020  0.020  0.020  0.000  0.000  0.000  0.000  0.000  0.077
    4  0.002  0.020  0.020  0.020  0.000  0.000  0.000  0.000  0.000  0.061
    5  0.002  0.020  0.020  0.020  0.000  0.000  0.000  0.000  0.000  0.061
    6  0.033  0.001  0.001  0.001  0.000  0.000  0.000  0.000  0.000  0.037
    7  0.033  0.001  0.001  0.001  0.000  0.000  0.000  0.000  0.000  0.036
    8  0.033  0.001  0.001  0.001  0.000  0.000  0.000  0.000  0.000  0.037
tot    0.421  0.083  0.084  0.083  0.000  0.000  0.000  0.000  0.000  0.670
 
band     3 # energy   -2.27623545 # occ.  1.00000000
 
ion      s     py     pz     px    dxy    dyz    dz2    dxz  x2-y2    tot
    1  0.000  0.030  0.000  0.030  0.000  0.000  0.000  0.000  0.000  0.059
    2  0.200  0.002  0.000  0.002  0.000  0.000  0.000  0.000  0.000  0.203
    3  0.000  0.002  0.000  0.002  0.000  0.000  0.000  0.000  0.000  0.003
    4  0.000  0.002  0.000  0.002  0.000  0.000  0.000  0.000  0.000  0.003
    5  0.200  0.002  0.000  0.002  0.000  0.000  0.000  0.000  0.000  0.203
    6  0.010  0.030  0.000  0.030  0.000  0.000  0.000  0.000  0.000  0.070
    7  0.000  0.030  0.000  0.030  0.000  0.000  0.000  0.000  0.000  0.059
    8  0.010  0.030  0.000  0.030  0.000  0.000  0.000  0.000  0.000  0.070
tot    0.421  0.125  0.000  0.125  0.000  0.000  0.000  0.000  0.000  0.670
 
band     4 # energy   -2.27623492 # occ.  1.00000000
 
ion      s     py     pz     px    dxy    dyz    dz2    dxz  x2-y2    tot
    1  0.000  0.012  0.036  0.012  0.000  0.000  0.000  0.000  0.000  0.059
    2  0.061  0.000  0.002  0.000  0.000  0.000  0.000  0.000  0.000  0.064
    3  0.001  0.000  0.002  0.000  0.000  0.000  0.000  0.000  0.000  0.004
    4  0.277  0.000  0.002  0.000  0.000  0.000  0.000  0.000  0.000  0.280
    5  0.061  0.000  0.002  0.000  0.000  0.000  0.000  0.000  0.000  0.064
    6  0.004  0.012  0.036  0.012  0.000  0.000  0.000  0.000  0.000  0.063
    7  0.013  0.012  0.036  0.012  0.000  0.000  0.000  0.000  0.000  0.073
    8  0.004  0.012  0.036  0.012  0.000  0.000  0.000  0.000  0.000  0.063
tot    0.421  0.048  0.153  0.048  0.000  0.000  0.000  0.000  0.000  0.670
 
band     5 # energy   -2.27622760 # occ.  1.00000000
 
ion      s     py     pz     px    dxy    dyz    dz2    dxz  x2-y2    tot
    1  0.018  0.018  0.023  0.018  0.000  0.000  0.000  0.000  0.000  0.077
    2  0.039  0.001  0.001  0.001  0.000  0.000  0.000  0.000  0.000  0.042
    3  0.297  0.001  0.001  0.001  0.000  0.000  0.000  0.000  0.000  0.300
    4  0.023  0.001  0.001  0.001  0.000  0.000  0.000  0.000  0.000  0.026
    5  0.039  0.001  0.001  0.001  0.000  0.000  0.000  0.000  0.000  0.042
    6  0.002  0.018  0.023  0.018  0.000  0.000  0.000  0.000  0.000  0.061
    7  0.003  0.018  0.023  0.018  0.000  0.000  0.000  0.000  0.000  0.062
    8  0.002  0.018  0.023  0.018  0.000  0.000  0.000  0.000  0.000  0.061
tot    0.421  0.077  0.096  0.077  0.000  0.000  0.000  0.000  0.000  0.670
 
band     6 # energy   -2.27616141 # occ.  1.00000000
 
ion      s     py     pz     px    dxy    dyz    dz2    dxz  x2-y2    tot
    1  0.000  0.001  0.002  0.001  0.000  0.000  0.000  0.000  0.000  0.003
    2  0.004  0.010  0.039  0.010  0.000  0.000  0.000  0.000  0.000  0.063
    3  0.000  0.010  0.039  0.010  0.000  0.000  0.000  0.000  0.000  0.059
    4  0.014  0.010  0.039  0.010  0.000  0.000  0.000  0.000  0.000  0.073
    5  0.004  0.010  0.039  0.010  0.000  0.000  0.000  0.000  0.000  0.063
    6  0.066  0.001  0.002  0.001  0.000  0.000  0.000  0.000  0.000  0.069
    7  0.267  0.001  0.002  0.001  0.000  0.000  0.000  0.000  0.000  0.270
    8  0.066  0.001  0.002  0.001  0.000  0.000  0.000  0.000  0.000  0.069
tot    0.421  0.042  0.166  0.042  0.000  0.000  0.000  0.000  0.000  0.670
 
band     7 # energy   -2.27616085 # occ.  1.00000000
 
ion      s     py     pz     px    dxy    dyz    dz2    dxz  x2-y2    tot
    1  0.000  0.002  0.000  0.002  0.000  0.000  0.000  0.000  0.000  0.003
    2  0.010  0.030  0.000  0.030  0.000  0.000  0.000  0.000  0.000  0.070
    3  0.000  0.030  0.000  0.030  0.000  0.000  0.000  0.000  0.000  0.059
    4  0.000  0.030  0.000  0.030  0.000  0.000  0.000  0.000  0.000  0.059
    5  0.010  0.030  0.000  0.030  0.000  0.000  0.000  0.000  0.000  0.070
    6  0.200  0.002  0.000  0.002  0.000  0.000  0.000  0.000  0.000  0.203
    7  0.000  0.002  0.000  0.002  0.000  0.000  0.000  0.000  0.000  0.003
    8  0.200  0.002  0.000  0.002  0.000  0.000  0.000  0.000  0.000  0.203
tot    0.421  0.125  0.000  0.125  0.000  0.000  0.000  0.000  0.000  0.670
 
band     8 # energy    4.29681272 # occ.  1.00000000
 
ion      s     py     pz     px    dxy    dyz    dz2    dxz  x2-y2    tot
    1  0.000  0.085  0.000  0.085  0.000  0.000  0.000  0.000  0.000  0.170
    2  0.000  0.033  0.072  0.018  0.000  0.000  0.000  0.000  0.000  0.123
    3  0.000  0.033  0.000  0.033  0.000  0.000  0.000  0.000  0.000  0.067
    4  0.000  0.018  0.000  0.018  0.000  0.000  0.000  0.000  0.000  0.035
    5  0.000  0.018  0.072  0.033  0.000  0.000  0.000  0.000  0.000  0.123
    6  0.000  0.001  0.003  0.085  0.000  0.000  0.000  0.000  0.000  0.088
    7  0.000  0.001  0.000  0.001  0.000  0.000  0.000  0.000  0.000  0.001
    8  0.000  0.085  0.003  0.001  0.000  0.000  0.000  0.000  0.000  0.088
tot    0.000  0.273  0.149  0.273  0.000  0.000  0.000  0.000  0.000  0.695
 
band     9 # energy    4.29681327 # occ.  1.00000000
 
ion      s     py     pz     px    dxy    dyz    dz2    dxz  x2-y2    tot
    1  0.000  0.030  0.109  0.030  0.000  0.000  0.000  0.000  0.000  0.170
    2  0.000  0.010  0.000  0.053  0.000  0.000  0.000  0.000  0.000  0.063
    3  0.000  0.010  0.048  0.010  0.000  0.000  0.000  0.000  0.000  0.068
    4  0.000  0.053  0.048  0.053  0.000  0.000  0.000  0.000  0.000  0.154
    5  0.000  0.053  0.000  0.010  0.000  0.000  0.000  0.000  0.000  0.063
    6  0.000  0.002  0.000  0.030  0.000  0.000  0.000  0.000  0.000  0.032
    7  0.000  0.002  0.109  0.002  0.000  0.000  0.000  0.000  0.000  0.113
    8  0.000  0.030  0.000  0.002  0.000  0.000  0.000  0.000  0.000  0.032
tot    0.000  0.190  0.314  0.190  0.000  0.000  0.000  0.000  0.000  0.695
 
band    10 # energy    4.29683365 # occ.  1.00000000
 
ion      s     py     pz     px    dxy    dyz    dz2    dxz  x2-y2    tot
    1  0.000  0.056  0.062  0.056  0.000  0.000  0.000  0.000  0.000  0.174
    2  0.000  0.059  0.000  0.000  0.000  0.000  0.000  0.000  0.000  0.059
    3  0.000  0.059  0.056  0.059  0.000  0.000  0.000  0.000  0.000  0.174
    4  0.000  0.000  0.056  0.000  0.000  0.000  0.000  0.000  0.000  0.056
    5  0.000  0.000  0.000  0.059  0.000  0.000  0.000  0.000  0.000  0.059
    6  0.000  0.000  0.000  0.056  0.000  0.000  0.000  0.000  0.000  0.056
    7  0.000  0.000  0.062  0.000  0.000  0.000  0.000  0.000  0.000  0.062
    8  0.000  0.056  0.000  0.000  0.000  0.000  0.000  0.000  0.000  0.056
tot    0.000  0.229  0.236  0.229  0.000  0.000  0.000  0.000  0.000  0.695
 
band    11 # energy    4.29686685 # occ.  1.00000000
 
ion      s     py     pz     px    dxy    dyz    dz2    dxz  x2-y2    tot
    1  0.000  0.000  0.000  0.000  0.000  0.000  0.000  0.000  0.000  0.000
    2  0.000  0.000  0.060  0.057  0.000  0.000  0.000  0.000  0.000  0.117
    3  0.000  0.000  0.000  0.000  0.000  0.000  0.000  0.000  0.000  0.000
    4  0.000  0.057  0.000  0.057  0.000  0.000  0.000  0.000  0.000  0.114
    5  0.000  0.057  0.060  0.000  0.000  0.000  0.000  0.000  0.000  0.117
    6  0.000  0.060  0.054  0.000  0.000  0.000  0.000  0.000  0.000  0.114
    7  0.000  0.060  0.000  0.060  0.000  0.000  0.000  0.000  0.000  0.120
    8  0.000  0.000  0.054  0.060  0.000  0.000  0.000  0.000  0.000  0.114
tot    0.000  0.234  0.227  0.234  0.000  0.000  0.000  0.000  0.000  0.695
 
band    12 # energy    4.29688722 # occ.  1.00000000
 
ion      s     py     pz     px    dxy    dyz    dz2    dxz  x2-y2    tot
    1  0.000  0.001  0.003  0.001  0.000  0.000  0.000  0.000  0.000  0.004
    2  0.000  0.018  0.000  0.034  0.000  0.000  0.000  0.000  0.000  0.052
    3  0.000  0.018  0.070  0.018  0.000  0.000  0.000  0.000  0.000  0.106
    4  0.000  0.034  0.070  0.034  0.000  0.000  0.000  0.000  0.000  0.138
    5  0.000  0.034  0.000  0.018  0.000  0.000  0.000  0.000  0.000  0.052
    6  0.000  0.085  0.000  0.001  0.000  0.000  0.000  0.000  0.000  0.086
    7  0.000  0.085  0.003  0.085  0.000  0.000  0.000  0.000  0.000  0.172
    8  0.000  0.001  0.000  0.085  0.000  0.000  0.000  0.000  0.000  0.086
tot    0.000  0.275  0.145  0.275  0.000  0.000  0.000  0.000  0.000  0.695
 
band    13 # energy    4.29688779 # occ.  1.00000000
 
ion      s     py     pz     px    dxy    dyz    dz2    dxz  x2-y2    tot
    1  0.000  0.002  0.000  0.002  0.000  0.000  0.000  0.000  0.000  0.004
    2  0.000  0.053  0.042  0.012  0.000  0.000  0.000  0.000  0.000  0.108
    3  0.000  0.053  0.000  0.053  0.000  0.000  0.000  0.000  0.000  0.107
    4  0.000  0.012  0.000  0.012  0.000  0.000  0.000  0.000  0.000  0.025
    5  0.000  0.012  0.042  0.053  0.000  0.000  0.000  0.000  0.000  0.108
    6  0.000  0.026  0.118  0.002  0.000  0.000  0.000  0.000  0.000  0.146
    7  0.000  0.026  0.000  0.026  0.000  0.000  0.000  0.000  0.000  0.053
    8  0.000  0.002  0.118  0.026  0.000  0.000  0.000  0.000  0.000  0.146
tot    0.000  0.188  0.319  0.188  0.000  0.000  0.000  0.000  0.000  0.695
 
band    14 # energy   11.20700827 # occ.  1.00000000
 
ion      s     py     pz     px    dxy    dyz    dz2    dxz  x2-y2    tot
    1  0.000  0.031  0.049  0.018  0.000  0.000  0.000  0.000  0.000  0.098
    2  0.000  0.031  0.049  0.018  0.000  0.000  0.000  0.000  0.000  0.099
    3  0.000  0.031  0.049  0.018  0.000  0.000  0.000  0.000  0.000  0.099
    4  0.000  0.031  0.049  0.018  0.000  0.000  0.000  0.000  0.000  0.099
    5  0.000  0.031  0.049  0.018  0.000  0.000  0.000  0.000  0.000  0.099
    6  0.000  0.031  0.049  0.018  0.000  0.000  0.000  0.000  0.000  0.098
    7  0.000  0.031  0.049  0.018  0.000  0.000  0.000  0.000  0.000  0.098
    8  0.000  0.031  0.049  0.018  0.000  0.000  0.000  0.000  0.000  0.098
tot    0.000  0.245  0.396  0.147  0.000  0.000  0.000  0.000  0.000  0.788
 
band    15 # energy   11.20700827 # occ.  1.00000000
 
ion      s     py     pz     px    dxy    dyz    dz2    dxz  x2-y2    tot
    1  0.000  0.035  0.016  0.047  0.000  0.000  0.000  0.000  0.000  0.098
    2  0.000  0.035  0.016  0.047  0.000  0.000  0.000  0.000  0.000  0.099
    3  0.000  0.035  0.016  0.047  0.000  0.000  0.000  0.000  0.000  0.099
    4  0.000  0.035  0.016  0.047  0.000  0.000  0.000  0.000  0.000  0.099
    5  0.000  0.035  0.016  0.047  0.000  0.000  0.000  0.000  0.000  0.099
    6  0.000  0.035  0.016  0.047  0.000  0.000  0.000  0.000  0.000  0.098
    7  0.000  0.035  0.016  0.047  0.000  0.000  0.000  0.000  0.000  0.098
    8  0.000  0.035  0.016  0.047  0.000  0.000  0.000  0.000  0.000  0.098
tot    0.000  0.280  0.130  0.378  0.000  0.000  0.000  0.000  0.000  0.788
 
band    16 # energy   11.20712012 # occ.  1.00000000
 
ion      s     py     pz     px    dxy    dyz    dz2    dxz  x2-y2    tot
    1  0.000  0.033  0.033  0.033  0.000  0.000  0.000  0.000  0.000  0.098
    2  0.000  0.033  0.033  0.033  0.000  0.000  0.000  0.000  0.000  0.099
    3  0.000  0.033  0.033  0.033  0.000  0.000  0.000  0.000  0.000  0.098
    4  0.000  0.033  0.033  0.033  0.000  0.000  0.000  0.000  0.000  0.099
    5  0.000  0.033  0.033  0.033  0.000  0.000  0.000  0.000  0.000  0.099
    6  0.000  0.033  0.033  0.033  0.000  0.000  0.000  0.000  0.000  0.098
    7  0.000  0.033  0.033  0.033  0.000  0.000  0.000  0.000  0.000  0.098
    8  0.000  0.033  0.033  0.033  0.000  0.000  0.000  0.000  0.000  0.098
tot    0.000  0.263  0.263  0.263  0.000  0.000  0.000  0.000  0.000  0.788
 
band    17 # energy   16.15459466 # occ.  0.00000000
 
ion      s     py     pz     px    dxy    dyz    dz2    dxz  x2-y2    tot
    1  0.000  0.004  0.000  0.004  0.000  0.000  0.000  0.000  0.000  0.008
    2  0.046  0.007  0.000  0.007  0.000  0.000  0.000  0.000  0.000  0.059
    3  0.000  0.007  0.000  0.007  0.000  0.000  0.000  0.000  0.000  0.013
    4  0.000  0.007  0.000  0.007  0.000  0.000  0.000  0.000  0.000  0.013
    5  0.046  0.007  0.000  0.007  0.000  0.000  0.000  0.000  0.000  0.059
    6  0.077  0.004  0.000  0.004  0.000  0.000  0.000  0.000  0.000  0.085
    7  0.000  0.004  0.000  0.004  0.000  0.000  0.000  0.000  0.000  0.008
    8  0.077  0.004  0.000  0.004  0.000  0.000  0.000  0.000  0.000  0.085
tot    0.247  0.042  0.000  0.042  0.000  0.000  0.000  0.000  0.000  0.332
 
band    18 # energy   16.15459481 # occ.  0.00000000
 
ion      s     py     pz     px    dxy    dyz    dz2    dxz  x2-y2    tot
    1  0.000  0.001  0.006  0.001  0.000  0.000  0.000  0.000  0.000  0.008
    2  0.017  0.002  0.008  0.002  0.000  0.000  0.000  0.000  0.000  0.030
    3  0.000  0.002  0.008  0.002  0.000  0.000  0.000  0.000  0.000  0.013
    4  0.064  0.002  0.008  0.002  0.000  0.000  0.000  0.000  0.000  0.077
    5  0.017  0.002  0.008  0.002  0.000  0.000  0.000  0.000  0.000  0.030
    6  0.025  0.001  0.006  0.001  0.000  0.000  0.000  0.000  0.000  0.033
    7  0.100  0.001  0.006  0.001  0.000  0.000  0.000  0.000  0.000  0.108
    8  0.025  0.001  0.006  0.001  0.000  0.000  0.000  0.000  0.000  0.033
tot    0.247  0.014  0.057  0.014  0.000  0.000  0.000  0.000  0.000  0.332
 
band    19 # energy   16.15461074 # occ.  0.00000000
 
ion      s     py     pz     px    dxy    dyz    dz2    dxz  x2-y2    tot
    1  0.003  0.007  0.007  0.007  0.000  0.000  0.000  0.000  0.000  0.024
    2  0.021  0.000  0.000  0.000  0.000  0.000  0.000  0.000  0.000  0.021
    3  0.182  0.000  0.000  0.000  0.000  0.000  0.000  0.000  0.000  0.183
    4  0.019  0.000  0.000  0.000  0.000  0.000  0.000  0.000  0.000  0.019
    5  0.021  0.000  0.000  0.000  0.000  0.000  0.000  0.000  0.000  0.021
    6  0.000  0.007  0.007  0.007  0.000  0.000  0.000  0.000  0.000  0.021
    7  0.001  0.007  0.007  0.007  0.000  0.000  0.000  0.000  0.000  0.022
    8  0.000  0.007  0.007  0.007  0.000  0.000  0.000  0.000  0.000  0.021
tot    0.247  0.028  0.029  0.028  0.000  0.000  0.000  0.000  0.000  0.332
 
band    20 # energy   16.15462364 # occ.  0.00000000
 
ion      s     py     pz     px    dxy    dyz    dz2    dxz  x2-y2    tot
    1  0.000  0.002  0.008  0.002  0.000  0.000  0.000  0.000  0.000  0.013
    2  0.024  0.001  0.006  0.001  0.000  0.000  0.000  0.000  0.000  0.032
    3  0.000  0.001  0.006  0.001  0.000  0.000  0.000  0.000  0.000  0.009
    4  0.102  0.001  0.006  0.001  0.000  0.000  0.000  0.000  0.000  0.111
    5  0.024  0.001  0.006  0.001  0.000  0.000  0.000  0.000  0.000  0.032
    6  0.016  0.002  0.008  0.002  0.000  0.000  0.000  0.000  0.000  0.029
    7  0.065  0.002  0.008  0.002  0.000  0.000  0.000  0.000  0.000  0.078
    8  0.016  0.002  0.008  0.002  0.000  0.000  0.000  0.000  0.000  0.029
tot    0.247  0.015  0.054  0.015  0.000  0.000  0.000  0.000  0.000  0.332
 
band    21 # energy   16.15462378 # occ.  0.00000000
 
ion      s     py     pz     px    dxy    dyz    dz2    dxz  x2-y2    tot
    1  0.000  0.007  0.000  0.007  0.000  0.000  0.000  0.000  0.000  0.013
    2  0.077  0.004  0.000  0.004  0.000  0.000  0.000  0.000  0.000  0.085
    3  0.000  0.004  0.000  0.004  0.000  0.000  0.000  0.000  0.000  0.008
    4  0.000  0.004  0.000  0.004  0.000  0.000  0.000  0.000  0.000  0.008
    5  0.077  0.004  0.000  0.004  0.000  0.000  0.000  0.000  0.000  0.085
    6  0.046  0.007  0.000  0.007  0.000  0.000  0.000  0.000  0.000  0.059
    7  0.000  0.007  0.000  0.007  0.000  0.000  0.000  0.000  0.000  0.013
    8  0.046  0.007  0.000  0.007  0.000  0.000  0.000  0.000  0.000  0.059
tot    0.247  0.042  0.000  0.042  0.000  0.000  0.000  0.000  0.000  0.332
 
band    22 # energy   16.15472155 # occ.  0.00000000
 
ion      s     py     pz     px    dxy    dyz    dz2    dxz  x2-y2    tot
    1  0.182  0.000  0.000  0.000  0.000  0.000  0.000  0.000  0.000  0.183
    2  0.000  0.007  0.007  0.007  0.000  0.000  0.000  0.000  0.000  0.021
    3  0.003  0.007  0.007  0.007  0.000  0.000  0.000  0.000  0.000  0.024
    4  0.000  0.007  0.007  0.007  0.000  0.000  0.000  0.000  0.000  0.021
    5  0.000  0.007  0.007  0.007  0.000  0.000  0.000  0.000  0.000  0.021
    6  0.020  0.000  0.000  0.000  0.000  0.000  0.000  0.000  0.000  0.021
    7  0.020  0.000  0.000  0.000  0.000  0.000  0.000  0.000  0.000  0.020
    8  0.020  0.000  0.000  0.000  0.000  0.000  0.000  0.000  0.000  0.021
tot    0.247  0.028  0.028  0.028  0.000  0.000  0.000  0.000  0.000  0.332
 
band    23 # energy   17.06126490 # occ.  0.00000000
 
ion      s     py     pz     px    dxy    dyz    dz2    dxz  x2-y2    tot
    1  0.000  0.025  0.025  0.025  0.000  0.000  0.000  0.000  0.000  0.075
    2  0.000  0.025  0.025  0.025  0.000  0.000  0.000  0.000  0.000  0.075
    3  0.000  0.025  0.025  0.025  0.000  0.000  0.000  0.000  0.000  0.075
    4  0.000  0.025  0.025  0.025  0.000  0.000  0.000  0.000  0.000  0.075
    5  0.000  0.025  0.025  0.025  0.000  0.000  0.000  0.000  0.000  0.075
    6  0.000  0.025  0.025  0.025  0.000  0.000  0.000  0.000  0.000  0.075
    7  0.000  0.025  0.025  0.025  0.000  0.000  0.000  0.000  0.000  0.075
    8  0.000  0.025  0.025  0.025  0.000  0.000  0.000  0.000  0.000  0.075
tot    0.000  0.201  0.201  0.201  0.000  0.000  0.000  0.000  0.000  0.603
 
band    24 # energy   17.06134960 # occ.  0.00000000
 
ion      s     py     pz     px    dxy    dyz    dz2    dxz  x2-y2    tot
    1  0.000  0.038  0.000  0.038  0.000  0.000  0.000  0.000  0.000  0.075
    2  0.000  0.038  0.000  0.038  0.000  0.000  0.000  0.000  0.000  0.075
    3  0.000  0.038  0.000  0.038  0.000  0.000  0.000  0.000  0.000  0.075
    4  0.000  0.038  0.000  0.038  0.000  0.000  0.000  0.000  0.000  0.075
    5  0.000  0.038  0.000  0.038  0.000  0.000  0.000  0.000  0.000  0.075
    6  0.000  0.038  0.000  0.038  0.000  0.000  0.000  0.000  0.000  0.075
    7  0.000  0.038  0.000  0.038  0.000  0.000  0.000  0.000  0.000  0.075
    8  0.000  0.038  0.000  0.038  0.000  0.000  0.000  0.000  0.000  0.075
tot    0.000  0.302  0.000  0.302  0.000  0.000  0.000  0.000  0.000  0.603
 
band    25 # energy   17.06134960 # occ.  0.00000000
 
ion      s     py     pz     px    dxy    dyz    dz2    dxz  x2-y2    tot
    1  0.000  0.013  0.050  0.013  0.000  0.000  0.000  0.000  0.000  0.075
    2  0.000  0.013  0.050  0.013  0.000  0.000  0.000  0.000  0.000  0.075
    3  0.000  0.013  0.050  0.013  0.000  0.000  0.000  0.000  0.000  0.075
    4  0.000  0.013  0.050  0.013  0.000  0.000  0.000  0.000  0.000  0.075
    5  0.000  0.013  0.050  0.013  0.000  0.000  0.000  0.000  0.000  0.075
    6  0.000  0.013  0.050  0.013  0.000  0.000  0.000  0.000  0.000  0.075
    7  0.000  0.013  0.050  0.013  0.000  0.000  0.000  0.000  0.000  0.075
    8  0.000  0.013  0.050  0.013  0.000  0.000  0.000  0.000  0.000  0.075
tot    0.000  0.101  0.402  0.101  0.000  0.000  0.000  0.000  0.000  0.603
 
band    26 # energy   26.78476975 # occ.  0.00000000
 
ion      s     py     pz     px    dxy    dyz    dz2    dxz  x2-y2    tot
    1  0.096  0.000  0.000  0.000  0.000  0.000  0.000  0.000  0.000  0.096
    2  0.096  0.000  0.000  0.000  0.000  0.000  0.000  0.000  0.000  0.096
    3  0.096  0.000  0.000  0.000  0.000  0.000  0.000  0.000  0.000  0.096
    4  0.096  0.000  0.000  0.000  0.000  0.000  0.000  0.000  0.000  0.096
    5  0.096  0.000  0.000  0.000  0.000  0.000  0.000  0.000  0.000  0.096
    6  0.096  0.000  0.000  0.000  0.000  0.000  0.000  0.000  0.000  0.096
    7  0.096  0.000  0.000  0.000  0.000  0.000  0.000  0.000  0.000  0.096
    8  0.096  0.000  0.000  0.000  0.000  0.000  0.000  0.000  0.000  0.096
tot    0.770  0.000  0.000  0.000  0.000  0.000  0.000  0.000  0.000  0.770
 
band    27 # energy   29.58557472 # occ.  0.00000000
 
ion      s     py     pz     px    dxy    dyz    dz2    dxz  x2-y2    tot
    1  0.000  0.000  0.002  0.051  0.000  0.000  0.000  0.000  0.000  0.053
    2  0.000  0.004  0.121  0.022  0.000  0.000  0.000  0.000  0.000  0.148
    3  0.000  0.004  0.053  0.002  0.000  0.000  0.000  0.000  0.000  0.058
    4  0.000  0.010  0.053  0.022  0.000  0.000  0.000  0.000  0.000  0.085
    5  0.000  0.010  0.121  0.002  0.000  0.000  0.000  0.000  0.000  0.133
    6  0.000  0.022  0.013  0.051  0.000  0.000  0.000  0.000  0.000  0.086
    7  0.000  0.022  0.002  0.123  0.000  0.000  0.000  0.000  0.000  0.147
    8  0.000  0.000  0.013  0.123  0.000  0.000  0.000  0.000  0.000  0.136
tot    0.000  0.072  0.378  0.397  0.000  0.000  0.000  0.000  0.000  0.847
 
band    28 # energy   29.58558191 # occ.  0.00000000
 
ion      s     py     pz     px    dxy    dyz    dz2    dxz  x2-y2    tot
    1  0.000  0.011  0.072  0.063  0.000  0.000  0.000  0.000  0.000  0.146
    2  0.000  0.103  0.004  0.005  0.000  0.000  0.000  0.000  0.000  0.111
    3  0.000  0.103  0.016  0.029  0.000  0.000  0.000  0.000  0.000  0.147
    4  0.000  0.056  0.016  0.005  0.000  0.000  0.000  0.000  0.000  0.076
    5  0.000  0.056  0.004  0.029  0.000  0.000  0.000  0.000  0.000  0.089
    6  0.000  0.017  0.032  0.063  0.000  0.000  0.000  0.000  0.000  0.111
    7  0.000  0.017  0.072  0.018  0.000  0.000  0.000  0.000  0.000  0.106
    8  0.000  0.011  0.032  0.018  0.000  0.000  0.000  0.000  0.000  0.061
tot    0.000  0.372  0.247  0.227  0.000  0.000  0.000  0.000  0.000  0.847
 

 k-point     2 :    0.12500000 0.00000000 0.00000000     weight = 0.01171875

band     1 # energy  -11.45850866 # occ.  1.00000000
 
ion      s     py     pz     px    dxy    dyz    dz2    dxz  x2-y2    tot
    1  0.073  0.000  0.000  0.001  0.000  0.000  0.000  0.000  0.000  0.073
    2  0.073  0.000  0.000  0.001  0.000  0.000  0.000  0.000  0.000  0.073
    3  0.073  0.000  0.000  0.001  0.000  0.000  0.000  0.000  0.000  0.073
    4  0.073  0.000  0.000  0.001  0.000  0.000  0.000  0.000  0.000  0.073
    5  0.073  0.000  0.000  0.001  0.000  0.000  0.000  0.000  0.000  0.073
    6  0.073  0.000  0.000  0.001  0.000  0.000  0.000  0.000  0.000  0.073
    7  0.073  0.000  0.000  0.001  0.000  0.000  0.000  0.000  0.000  0.073
    8  0.073  0.000  0.000  0.001  0.000  0.000  0.000  0.000  0.000  0.073
tot    0.582  0.000  0.000  0.004  0.000  0.000  0.000  0.000  0.000  0.587
 
band     2 # energy   -4.34479185 # occ.  1.00000000
 
ion      s     py     pz     px    dxy    dyz    dz2    dxz  x2-y2    tot
    1  0.057  0.000  0.000  0.024  0.000  0.000  0.000  0.000  0.000  0.081
    2  0.057  0.000  0.000  0.024  0.000  0.000  0.000  0.000  0.000  0.081
    3  0.057  0.000  0.000  0.024  0.000  0.000  0.000  0.000  0.000  0.081
    4  0.057  0.000  0.000  0.024  0.000  0.000  0.000  0.000  0.000  0.081
    5  0.057  0.000  0.000  0.024  0.000  0.000  0.000  0.000  0.000  0.081
    6  0.057  0.000  0.000  0.024  0.000  0.000  0.000  0.000  0.000  0.081
    7  0.057  0.000  0.000  0.024  0.000  0.000  0.000  0.000  0.000  0.081
    8  0.057  0.000  0.000  0.024  0.000  0.000  0.000  0.000  0.000  0.081
tot    0.453  0.000  0.000  0.195  0.000  0.000  0.000  0.000  0.000  0.648
 
band     3 # energy   -2.17108185 # occ.  1.00000000
 
ion      s     py     pz     px    dxy    dyz    dz2    dxz  x2-y2    tot
    1  0.161  0.008  0.007  0.000  0.000  0.000  0.000  0.000  0.000  0.176
    2  0.000  0.023  0.024  0.000  0.000  0.000  0.000  0.000  0.000  0.047
    3  0.052  0.023  0.024  0.000  0.000  0.000  0.000  0.000  0.000  0.099
    4  0.000  0.023  0.024  0.000  0.000  0.000  0.000  0.000  0.000  0.047
    5  0.052  0.023  0.024  0.000  0.000  0.000  0.000  0.000  0.000  0.099
    6  0.161  0.008  0.007  0.000  0.000  0.000  0.000  0.000  0.000  0.176
    7  0.000  0.008  0.007  0.000  0.000  0.000  0.000  0.000  0.000  0.015
    8  0.000  0.008  0.007  0.000  0.000  0.000  0.000  0.000  0.000  0.015
tot    0.424  0.124  0.124  0.001  0.000  0.000  0.000  0.000  0.000  0.674
 
band     4 # energy   -2.17105660 # occ.  1.00000000
 
ion      s     py     pz     px    dxy    dyz    dz2    dxz  x2-y2    tot
    1  0.000  0.031  0.028  0.000  0.000  0.000  0.000  0.000  0.000  0.059
    2  0.201  0.001  0.002  0.001  0.000  0.000  0.000  0.000  0.000  0.205
    3  0.000  0.001  0.002  0.000  0.000  0.000  0.000  0.000  0.000  0.003
    4  0.201  0.001  0.002  0.001  0.000  0.000  0.000  0.000  0.000  0.205
    5  0.000  0.001  0.002  0.000  0.000  0.000  0.000  0.000  0.000  0.003
    6  0.000  0.031  0.028  0.000  0.000  0.000  0.000  0.000  0.000  0.059
    7  0.011  0.031  0.028  0.000  0.000  0.000  0.000  0.000  0.000  0.070
    8  0.011  0.031  0.028  0.000  0.000  0.000  0.000  0.000  0.000  0.070
tot    0.424  0.129  0.119  0.001  0.000  0.000  0.000  0.000  0.000  0.674
 
band     5 # energy   -2.17104351 # occ.  1.00000000
 
ion      s     py     pz     px    dxy    dyz    dz2    dxz  x2-y2    tot
    1  0.051  0.022  0.025  0.000  0.000  0.000  0.000  0.000  0.000  0.099
    2  0.000  0.008  0.007  0.000  0.000  0.000  0.000  0.000  0.000  0.015
    3  0.160  0.008  0.007  0.000  0.000  0.000  0.000  0.000  0.000  0.176
    4  0.000  0.008  0.007  0.000  0.000  0.000  0.000  0.000  0.000  0.015
    5  0.160  0.008  0.007  0.000  0.000  0.000  0.000  0.000  0.000  0.176
    6  0.051  0.022  0.025  0.000  0.000  0.000  0.000  0.000  0.000  0.099
    7  0.000  0.022  0.025  0.000  0.000  0.000  0.000  0.000  0.000  0.047
    8  0.000  0.022  0.025  0.000  0.000  0.000  0.000  0.000  0.000  0.047
tot    0.424  0.118  0.131  0.001  0.000  0.000  0.000  0.000  0.000  0.674
 
band     6 # energy   -2.17098089 # occ.  1.00000000
 
ion      s     py     pz     px    dxy    dyz    dz2    dxz  x2-y2    tot
    1  0.000  0.002  0.002  0.000  0.000  0.000  0.000  0.000  0.000  0.003
    2  0.011  0.030  0.029  0.000  0.000  0.000  0.000  0.000  0.000  0.070
    3  0.000  0.030  0.029  0.000  0.000  0.000  0.000  0.000  0.000  0.059
    4  0.011  0.030  0.029  0.000  0.000  0.000  0.000  0.000  0.000  0.070
    5  0.000  0.030  0.029  0.000  0.000  0.000  0.000  0.000  0.000  0.059
    6  0.000  0.002  0.002  0.000  0.000  0.000  0.000  0.000  0.000  0.003
    7  0.202  0.002  0.002  0.001  0.000  0.000  0.000  0.000  0.000  0.205
    8  0.202  0.002  0.002  0.001  0.000  0.000  0.000  0.000  0.000  0.205
tot    0.424  0.125  0.123  0.001  0.000  0.000  0.000  0.000  0.000  0.674
 
band     7 # energy   -0.06057475 # occ.  1.00000000
 
ion      s     py     pz     px    dxy    dyz    dz2    dxz  x2-y2    tot
    1  0.048  0.000  0.000  0.039  0.000  0.000  0.000  0.000  0.000  0.087
    2  0.048  0.000  0.000  0.039  0.000  0.000  0.000  0.000  0.000  0.087
    3  0.048  0.000  0.000  0.039  0.000  0.000  0.000  0.000  0.000  0.087
    4  0.048  0.000  0.000  0.039  0.000  0.000  0.000  0.000  0.000  0.087
    5  0.048  0.000  0.000  0.039  0.000  0.000  0.000  0.000  0.000  0.087
    6  0.048  0.000  0.000  0.039  0.000  0.000  0.000  0.000  0.000  0.087
    7  0.048  0.000  0.000  0.039  0.000  0.000  0.000  0.000  0.000  0.087
    8  0.048  0.000  0.000  0.039  0.000  0.000  0.000  0.000  0.000  0.087
tot    0.386  0.000  0.000  0.310  0.000  0.000  0.000  0.000  0.000  0.695
 
band     8 # energy    3.95813386 # occ.  1.00000000
 
ion      s     py     pz     px    dxy    dyz    dz2    dxz  x2-y2    tot
    1  0.004  0.006  0.006  0.140  0.000  0.000  0.000  0.000  0.000  0.156
    2  0.000  0.036  0.037  0.000  0.000  0.000  0.000  0.000  0.000  0.073
    3  0.001  0.036  0.037  0.023  0.000  0.000  0.000  0.000  0.000  0.097
    4  0.000  0.036  0.037  0.000  0.000  0.000  0.000  0.000  0.000  0.073
    5  0.001  0.036  0.037  0.023  0.000  0.000  0.000  0.000  0.000  0.097
    6  0.004  0.006  0.006  0.140  0.000  0.000  0.000  0.000  0.000  0.156
    7  0.000  0.006  0.006  0.000  0.000  0.000  0.000  0.000  0.000  0.012
    8  0.000  0.006  0.006  0.000  0.000  0.000  0.000  0.000  0.000  0.012
tot    0.010  0.169  0.172  0.326  0.000  0.000  0.000  0.000  0.000  0.677
 
band     9 # energy    3.95816004 # occ.  1.00000000
 
ion      s     py     pz     px    dxy    dyz    dz2    dxz  x2-y2    tot
    1  0.000  0.038  0.034  0.000  0.000  0.000  0.000  0.000  0.000  0.072
    2  0.004  0.006  0.007  0.138  0.000  0.000  0.000  0.000  0.000  0.155
    3  0.000  0.006  0.007  0.000  0.000  0.000  0.000  0.000  0.000  0.013