<?xml version="1.0" encoding="ISO-8859-1"?>
<modeling>
 <generator>
  <i name="program" type="string">vasp </i>
  <i name="version" type="string">5.4.4.18Apr17-6-g9f103f2a35  </i>
  <i name="subversion" type="string">(build Jul  5 2023 12:24:19) complex            parallel </i>
  <i name="platform" type="string">NVIDIA22.7_CrayMPICH8.1.17 </i>
  <i name="date" type="string">2023 10 16 </i>
  <i name="time" type="string">23:30:36 </i>
 </generator>
 <incar>
  <i type="string" name="PREC">accurate</i>
  <i type="int" name="ISPIN">     2</i>
  <i type="int" name="ICHARG">     0</i>
  <i type="int" name="IBRION">     2</i>
  <i name="EDIFF">      0.00000100</i>
  <i name="EDIFFG">      0.00010000</i>
  <i type="int" name="NSW">   100</i>
  <i type="int" name="ISIF">     3</i>
  <i type="int" name="ISYM">     2</i>
  <i name="SYMPREC">      0.00010000</i>
  <i name="POTIM">      0.01500000</i>
  <i type="int" name="ISMEAR">    -5</i>
  <i name="SIGMA">      0.01000000</i>
  <i type="int" name="NWRITE">     0</i>
  <i name="PSTRESS">    500.00000000</i>
  <i type="logical" name="LWAVE"> F  </i>
  <i type="logical" name="LCHARG"> F  </i>
  <i type="int" name="LORBIT">    11</i>
  <v type="int" name="KPOINT_BSE">    -1     0     0     0</v>
 </incar>
 <structure name="primitive_cell" >
  <crystal>
   <varray name="basis" >
    <v>       1.75593999       1.75593999      -0.00000702 </v>
    <v>       1.75593999      -0.00000000      -1.75594701 </v>
    <v>       0.00000000       1.75593999      -1.75594701 </v>
   </varray>
   <i name="volume">     10.82828983 </i>
   <varray name="rec_basis" >
    <v>       0.28474834       0.28474834       0.28474720 </v>
    <v>       0.28474720      -0.28474834      -0.28474720 </v>
    <v>      -0.28474834       0.28474720      -0.28474720 </v>
   </varray>
  </crystal>
  <varray name="positions" >
   <v>       0.27008605       0.24330497       0.24330497 </v>
   <v>      -0.47991595       0.49330597       0.49330597 </v>
  </varray>
 </structure>
 <varray name="primitive_index" >
  <v type="int" >        1 </v>
  <v type="int" >        2 </v>
 </varray>
 <kpoints>
  <generation param="Gamma">
   <v type="int" name="divisions">       8        8        8 </v>
   <v name="usershift">      0.00000000       0.00000000       0.00000000 </v>
   <v name="genvec1">      0.12500000       0.00000000       0.00000000 </v>
   <v name="genvec2">      0.00000000       0.12500000       0.00000000 </v>
   <v name="genvec3">      0.00000000       0.00000000       0.12500000 </v>
   <v name="shift">      0.00000000       0.00000000       0.00000000 </v>
  </generation>
  <varray name="kpointlist" >
   <v>       0.00000000       0.00000000       0.00000000 </v>
   <v>       0.12500000       0.00000000       0.00000000 </v>
   <v>       0.25000000       0.00000000       0.00000000 </v>
   <v>       0.37500000       0.00000000       0.00000000 </v>
   <v>       0.50000000       0.00000000       0.00000000 </v>
   <v>       0.12500000       0.12500000       0.00000000 </v>
   <v>       0.25000000       0.12500000       0.00000000 </v>
   <v>       0.37500000       0.12500000       0.00000000 </v>
   <v>       0.50000000       0.12500000       0.00000000 </v>
   <v>       0.25000000       0.25000000       0.00000000 </v>
   <v>       0.37500000       0.25000000       0.00000000 </v>
   <v>       0.50000000       0.25000000       0.00000000 </v>
   <v>       0.37500000       0.37500000       0.00000000 </v>
   <v>       0.50000000       0.37500000       0.00000000 </v>
   <v>       0.50000000       0.50000000       0.00000000 </v>
   <v>       0.12500000       0.12500000       0.12500000 </v>
   <v>       0.25000000       0.12500000       0.12500000 </v>
   <v>       0.37500000       0.12500000       0.12500000 </v>
   <v>       0.50000000       0.12500000       0.12500000 </v>
   <v>       0.25000000       0.25000000       0.12500000 </v>
   <v>       0.37500000       0.25000000       0.12500000 </v>
   <v>       0.50000000       0.25000000       0.12500000 </v>
   <v>       0.37500000       0.37500000       0.12500000 </v>
   <v>       0.50000000       0.37500000       0.12500000 </v>
   <v>       0.50000000       0.50000000       0.12500000 </v>
   <v>       0.25000000       0.25000000       0.25000000 </v>
   <v>       0.37500000       0.25000000       0.25000000 </v>
   <v>       0.50000000       0.25000000       0.25000000 </v>
   <v>       0.37500000       0.37500000       0.25000000 </v>
   <v>       0.50000000       0.37500000       0.25000000 </v>
   <v>       0.50000000       0.50000000       0.25000000 </v>
   <v>       0.37500000       0.37500000       0.37500000 </v>
   <v>       0.50000000       0.37500000       0.37500000 </v>
   <v>       0.50000000       0.50000000       0.37500000 </v>
   <v>       0.50000000       0.50000000       0.50000000 </v>
  </varray>
  <varray name="weights" >
   <v>       0.00195313 </v>
   <v>       0.01171875 </v>
   <v>       0.01171875 </v>
   <v>       0.01171875 </v>
   <v>       0.00585938 </v>
   <v>       0.02343750 </v>
   <v>       0.04687500 </v>
   <v>       0.04687500 </v>
   <v>       0.02343750 </v>
   <v>       0.02343750 </v>
   <v>       0.04687500 </v>
   <v>       0.02343750 </v>
   <v>       0.02343750 </v>
   <v>       0.02343750 </v>
   <v>       0.00585938 </v>
   <v>       0.01562500 </v>
   <v>       0.04687500 </v>
   <v>       0.04687500 </v>
   <v>       0.02343750 </v>
   <v>       0.04687500 </v>
   <v>       0.09375000 </v>
   <v>       0.04687500 </v>
   <v>       0.04687500 </v>
   <v>       0.04687500 </v>
   <v>       0.01171875 </v>
   <v>       0.01562500 </v>
   <v>       0.04687500 </v>
   <v>       0.02343750 </v>
   <v>       0.04687500 </v>
   <v>       0.04687500 </v>
   <v>       0.01171875 </v>
   <v>       0.01562500 </v>
   <v>       0.02343750 </v>
   <v>       0.01171875 </v>
   <v>       0.00195313 </v>
  </varray>
  <varray name="tetrahedronlist"  type="int" >
   <v type="int" >       12        1        2        2        6 </v>
   <v type="int" >       12        2        2        6        6 </v>
   <v type="int" >       12        2        6        6       16 </v>
   <v type="int" >       12        2        3        6        7 </v>
   <v type="int" >       12        2        6        6        7 </v>
   <v type="int" >       12        6        6        7       16 </v>
   <v type="int" >       12        3        6        7        7 </v>
   <v type="int" >       24        6        7        7       17 </v>
   <v type="int" >       24        6        7       16       17 </v>
   <v type="int" >       12        3        4        7        8 </v>
   <v type="int" >       12        3        7        7        8 </v>
   <v type="int" >       12        7        7        8       17 </v>
   <v type="int" >       12        4        7        8        8 </v>
   <v type="int" >       12        7        8        8       18 </v>
   <v type="int" >       12        7        8       17       18 </v>
   <v type="int" >       12        4        5        8        9 </v>
   <v type="int" >       12        4        8        8        9 </v>
   <v type="int" >       12        8        8        9       18 </v>
   <v type="int" >       12        5        8        9        9 </v>
   <v type="int" >       12        8        9        9       19 </v>
   <v type="int" >       12        8        9       18       19 </v>
   <v type="int" >       12        6        7       10       16 </v>
   <v type="int" >       12        7       10       16       17 </v>
   <v type="int" >       12       10       16       17       20 </v>
   <v type="int" >       12        7        8       11       17 </v>
   <v type="int" >       12        7       10       11       17 </v>
   <v type="int" >       12       10       11       17       20 </v>
   <v type="int" >       12        8       11       17       18 </v>
   <v type="int" >       12       11       17       18       21 </v>
   <v type="int" >       12       11       17       20       21 </v>
   <v type="int" >       12        8        9       12       18 </v>
   <v type="int" >       12        8       11       12       18 </v>
   <v type="int" >       12       11       12       18       21 </v>
   <v type="int" >       12        9       12       18       19 </v>
   <v type="int" >       12       12       18       19       22 </v>
   <v type="int" >       12       12       18       21       22 </v>
   <v type="int" >       12        8        9       11       19 </v>
   <v type="int" >       12        9       11       12       19 </v>
   <v type="int" >       12       11       12       19       22 </v>
   <v type="int" >       12        8       11       18       19 </v>
   <v type="int" >       12       11       18       19       21 </v>
   <v type="int" >       12       11       19       21       22 </v>
   <v type="int" >       12        7        8       10       18 </v>
   <v type="int" >       12        8       10       11       18 </v>
   <v type="int" >       12       10       11       18       21 </v>
   <v type="int" >       12        7       10       17       18 </v>
   <v type="int" >       12       10       17       18       20 </v>
   <v type="int" >       12       10       18       20       21 </v>
   <v type="int" >       12        7        7       10       17 </v>
   <v type="int" >       12        7       10       17       20 </v>
   <v type="int" >       12        7       16       17       17 </v>
   <v type="int" >       12        7       17       17       20 </v>
   <v type="int" >       12        2        3        6       16 </v>
   <v type="int" >       12        3        6        7       16 </v>
   <v type="int" >       12        3        7       16       17 </v>
   <v type="int" >       12       10       11       13       20 </v>
   <v type="int" >       12       11       13       20       21 </v>
   <v type="int" >       12       13       20       21       23 </v>
   <v type="int" >       12       11       12       14       21 </v>
   <v type="int" >       12       11       13       14       21 </v>
   <v type="int" >       12       13       14       21       23 </v>
   <v type="int" >       12       12       14       21       22 </v>
   <v type="int" >       12       14       21       22       24 </v>
   <v type="int" >       12       14       21       23       24 </v>
   <v type="int" >       12       11       12       13       22 </v>
   <v type="int" >       12       12       13       14       22 </v>
   <v type="int" >       12       13       14       22       24 </v>
   <v type="int" >       12       11       13       21       22 </v>
   <v type="int" >       12       13       21       22       23 </v>
   <v type="int" >       12       13       22       23       24 </v>
   <v type="int" >       12       10       11       11       21 </v>
   <v type="int" >       12       11       11       13       21 </v>
   <v type="int" >       12       11       13       21       23 </v>
   <v type="int" >       12       10       11       20       21 </v>
   <v type="int" >       12       11       20       21       21 </v>
   <v type="int" >       12       11       21       21       23 </v>
   <v type="int" >       12        7        8       10       20 </v>
   <v type="int" >       12        8       10       11       20 </v>
   <v type="int" >       12        8       11       20       21 </v>
   <v type="int" >       12        7        8       17       20 </v>
   <v type="int" >       12        8       17       18       20 </v>
   <v type="int" >       12        8       18       20       21 </v>
   <v type="int" >       12        3        4        7       17 </v>
   <v type="int" >       12        4        7        8       17 </v>
   <v type="int" >       12        4        8       17       18 </v>
   <v type="int" >       12       13       14       15       23 </v>
   <v type="int" >       12       14       15       23       24 </v>
   <v type="int" >       12       15       23       24       25 </v>
   <v type="int" >       12       13       14       14       24 </v>
   <v type="int" >       12       14       14       15       24 </v>
   <v type="int" >       12       14       15       24       25 </v>
   <v type="int" >       12       13       14       23       24 </v>
   <v type="int" >       12       14       23       24       24 </v>
   <v type="int" >       12       14       24       24       25 </v>
   <v type="int" >       12       11       12       13       23 </v>
   <v type="int" >       12       12       13       14       23 </v>
   <v type="int" >       12       12       14       23       24 </v>
   <v type="int" >       12       11       12       21       23 </v>
   <v type="int" >       12       12       21       22       23 </v>
   <v type="int" >       12       12       22       23       24 </v>
   <v type="int" >       12        8        9       11       21 </v>
   <v type="int" >       12        9       11       12       21 </v>
   <v type="int" >       12        9       12       21       22 </v>
   <v type="int" >       12        8        9       18       21 </v>
   <v type="int" >       12        9       18       19       21 </v>
   <v type="int" >       12        9       19       21       22 </v>
   <v type="int" >       12        4        5        8       18 </v>
   <v type="int" >       12        5        8        9       18 </v>
   <v type="int" >       12        5        9       18       19 </v>
   <v type="int" >       12       13       14       15       25 </v>
   <v type="int" >       12       13       14       24       25 </v>
   <v type="int" >       12       13       23       24       25 </v>
   <v type="int" >       12       11       12       14       24 </v>
   <v type="int" >       12       11       13       14       24 </v>
   <v type="int" >       12       11       13       23       24 </v>
   <v type="int" >       12       11       12       22       24 </v>
   <v type="int" >       12       11       21       22       24 </v>
   <v type="int" >       12       11       21       23       24 </v>
   <v type="int" >       12        8        9       12       22 </v>
   <v type="int" >       12        8       11       12       22 </v>
   <v type="int" >       12        8       11       21       22 </v>
   <v type="int" >       12        8        9       19       22 </v>
   <v type="int" >       12        8       18       19       22 </v>
   <v type="int" >       12        8       18       21       22 </v>
   <v type="int" >       12        4        5        9       19 </v>
   <v type="int" >       12        4        8        9       19 </v>
   <v type="int" >       12        4        8       18       19 </v>
   <v type="int" >       12       10       11       13       23 </v>
   <v type="int" >       12       10       11       21       23 </v>
   <v type="int" >       12       10       20       21       23 </v>
   <v type="int" >       12        7        8       11       21 </v>
   <v type="int" >       12        7       10       11       21 </v>
   <v type="int" >       12        7       10       20       21 </v>
   <v type="int" >       12        7        8       18       21 </v>
   <v type="int" >       12        7       17       18       21 </v>
   <v type="int" >       12        7       17       20       21 </v>
   <v type="int" >       12        3        4        8       18 </v>
   <v type="int" >       12        3        7        8       18 </v>
   <v type="int" >       12        3        7       17       18 </v>
   <v type="int" >       12        6        7       10       20 </v>
   <v type="int" >       12        6        7       17       20 </v>
   <v type="int" >       12        6       16       17       20 </v>
   <v type="int" >       12        2        3        7       17 </v>
   <v type="int" >       12        2        6        7       17 </v>
   <v type="int" >       12        2        6       16       17 </v>
   <v type="int" >       12        1        2        6       16 </v>
   <v type="int" >       12       16       17       17       20 </v>
   <v type="int" >       12       17       17       20       20 </v>
   <v type="int" >       12       17       20       20       26 </v>
   <v type="int" >       12       17       18       20       21 </v>
   <v type="int" >       12       17       20       20       21 </v>
   <v type="int" >       12       20       20       21       26 </v>
   <v type="int" >       12       18       20       21       21 </v>
   <v type="int" >       24       20       21       21       27 </v>
   <v type="int" >       24       20       21       26       27 </v>
   <v type="int" >       12       18       19       21       22 </v>
   <v type="int" >       12       18       21       21       22 </v>
   <v type="int" >       12       21       21       22       27 </v>
   <v type="int" >       12       19       21       22       22 </v>
   <v type="int" >       12       21       22       22       28 </v>
   <v type="int" >       12       21       22       27       28 </v>
   <v type="int" >       12       20       21       23       26 </v>
   <v type="int" >       12       21       23       26       27 </v>
   <v type="int" >       12       23       26       27       29 </v>
   <v type="int" >       12       21       22       24       27 </v>
   <v type="int" >       12       21       23       24       27 </v>
   <v type="int" >       12       23       24       27       29 </v>
   <v type="int" >       12       22       24       27       28 </v>
   <v type="int" >       12       24       27       28       30 </v>
   <v type="int" >       12       24       27       29       30 </v>
   <v type="int" >       12       21       22       23       28 </v>
   <v type="int" >       12       22       23       24       28 </v>
   <v type="int" >       12       23       24       28       30 </v>
   <v type="int" >       12       21       23       27       28 </v>
   <v type="int" >       12       23       27       28       29 </v>
   <v type="int" >       12       23       28       29       30 </v>
   <v type="int" >       12       21       21       23       27 </v>
   <v type="int" >       12       21       23       27       29 </v>
   <v type="int" >       12       21       26       27       27 </v>
   <v type="int" >       12       21       27       27       29 </v>
   <v type="int" >       12       17       18       20       26 </v>
   <v type="int" >       12       18       20       21       26 </v>
   <v type="int" >       12       18       21       26       27 </v>
   <v type="int" >       12       23       24       25       29 </v>
   <v type="int" >       12       24       25       29       30 </v>
   <v type="int" >       12       25       29       30       31 </v>
   <v type="int" >       12       23       24       24       30 </v>
   <v type="int" >       12       24       24       25       30 </v>
   <v type="int" >       12       24       25       30       31 </v>
   <v type="int" >       12       23       24       29       30 </v>
   <v type="int" >       12       24       29       30       30 </v>
   <v type="int" >       12       24       30       30       31 </v>
   <v type="int" >       12       21       22       23       29 </v>
   <v type="int" >       12       22       23       24       29 </v>
   <v type="int" >       12       22       24       29       30 </v>
   <v type="int" >       12       21       22       27       29 </v>
   <v type="int" >       12       22       27       28       29 </v>
   <v type="int" >       12       22       28       29       30 </v>
   <v type="int" >       12       18       19       21       27 </v>
   <v type="int" >       12       19       21       22       27 </v>
   <v type="int" >       12       19       22       27       28 </v>
   <v type="int" >       12       23       24       25       31 </v>
   <v type="int" >       12       23       24       30       31 </v>
   <v type="int" >       12       23       29       30       31 </v>
   <v type="int" >       12       21       22       24       30 </v>
   <v type="int" >       12       21       23       24       30 </v>
   <v type="int" >       12       21       23       29       30 </v>
   <v type="int" >       12       21       22       28       30 </v>
   <v type="int" >       12       21       27       28       30 </v>
   <v type="int" >       12       21       27       29       30 </v>
   <v type="int" >       12       18       19       22       28 </v>
   <v type="int" >       12       18       21       22       28 </v>
   <v type="int" >       12       18       21       27       28 </v>
   <v type="int" >       12       20       21       23       29 </v>
   <v type="int" >       12       20       21       27       29 </v>
   <v type="int" >       12       20       26       27       29 </v>
   <v type="int" >       12       17       18       21       27 </v>
   <v type="int" >       12       17       20       21       27 </v>
   <v type="int" >       12       17       20       26       27 </v>
   <v type="int" >       12       16       17       20       26 </v>
   <v type="int" >       12       26       27       27       29 </v>
   <v type="int" >       12       27       27       29       29 </v>
   <v type="int" >       12       27       29       29       32 </v>
   <v type="int" >       12       27       28       29       30 </v>
   <v type="int" >       12       27       29       29       30 </v>
   <v type="int" >       12       29       29       30       32 </v>
   <v type="int" >       12       28       29       30       30 </v>
   <v type="int" >       24       29       30       30       33 </v>
   <v type="int" >       24       29       30       32       33 </v>
   <v type="int" >       12       29       30       31       32 </v>
   <v type="int" >       12       30       31       32       33 </v>
   <v type="int" >       12       31       32       33       34 </v>
   <v type="int" >       12       30       30       31       33 </v>
   <v type="int" >       12       30       31       33       34 </v>
   <v type="int" >       12       30       32       33       33 </v>
   <v type="int" >       12       30       33       33       34 </v>
   <v type="int" >       12       27       28       29       32 </v>
   <v type="int" >       12       28       29       30       32 </v>
   <v type="int" >       12       28       30       32       33 </v>
   <v type="int" >       12       29       30       31       34 </v>
   <v type="int" >       12       29       30       33       34 </v>
   <v type="int" >       12       29       32       33       34 </v>
   <v type="int" >       12       27       28       30       33 </v>
   <v type="int" >       12       27       29       30       33 </v>
   <v type="int" >       12       27       29       32       33 </v>
   <v type="int" >       12       26       27       29       32 </v>
   <v type="int" >       12       32       33       33       34 </v>
   <v type="int" >       12       33       33       34       34 </v>
   <v type="int" >       12       33       34       34       35 </v>
   <v type="int" >       12       32       33       34       35 </v>
  </varray>
  <i name="volumeweight">      0.00032552 </i>
 </kpoints>
 <parameters>
  <separator name="general" >
   <i type="string" name="SYSTEM">unknown system</i>
   <i type="logical" name="LCOMPAT"> F  </i>
  </separator>
  <separator name="electronic" >
   <i type="string" name="PREC">accura</i>
   <i name="ENMAX">    400.00000000</i>
   <i name="ENAUG">    644.87300000</i>
   <i name="EDIFF">      0.00000100</i>
   <i type="int" name="IALGO">    38</i>
   <i type="int" name="IWAVPR">    11</i>
   <i type="int" name="NBANDS">    28</i>
   <i name="NELECT">     32.00000000</i>
   <i type="int" name="TURBO">     0</i>
   <i type="int" name="IRESTART">     0</i>
   <i type="int" name="NREBOOT">     0</i>
   <i type="int" name="NMIN">     0</i>
   <i name="EREF">      0.00000000</i>
   <separator name="electronic smearing" >
    <i type="int" name="ISMEAR">    -5</i>
    <i name="SIGMA">      0.01000000</i>
    <i name="KSPACING">      0.50000000</i>
    <i type="logical" name="KGAMMA"> T  </i>
   </separator>
   <separator name="electronic projectors" >
    <i type="logical" name="LREAL"> F  </i>
    <v name="ROPT">      0.00000000</v>
    <i type="int" name="LMAXPAW">  -100</i>
    <i type="int" name="LMAXMIX">     2</i>
    <i type="logical" name="NLSPLINE"> F  </i>
   </separator>
   <separator name="electronic startup" >
    <i type="int" name="ISTART">     0</i>
    <i type="int" name="ICHARG">     0</i>
    <i type="int" name="INIWAV">     1</i>
   </separator>
   <separator name="electronic spin" >
    <i type="int" name="ISPIN">     2</i>
    <i type="logical" name="LNONCOLLINEAR"> F  </i>
    <v name="MAGMOM">      1.00000000      1.00000000      1.00000000      1.00000000      1.00000000      1.00000000      1.00000000      1.00000000</v>
    <i name="NUPDOWN">     -1.00000000</i>
    <i type="logical" name="LSORBIT"> F  </i>
    <v name="SAXIS">      0.00000000      0.00000000      1.00000000</v>
    <i type="logical" name="LSPIRAL"> F  </i>
    <v name="QSPIRAL">      0.00000000      0.00000000      0.00000000</v>
    <i type="logical" name="LZEROZ"> F  </i>
   </separator>
   <separator name="electronic exchange-correlation" >
    <i type="logical" name="LASPH"> F  </i>
    <i type="logical" name="LMETAGGA"> F  </i>
   </separator>
   <separator name="electronic convergence" >
    <i type="int" name="NELM">    60</i>
    <i type="int" name="NELMDL">    -5</i>
    <i type="int" name="NELMIN">     2</i>
    <i name="ENINI">    400.00000000</i>
    <separator name="electronic convergence detail" >
     <i type="logical" name="LDIAG"> T  </i>
     <i type="logical" name="LSUBROT"> F  </i>
     <i name="WEIMIN">      0.00100000</i>
     <i name="EBREAK">      0.00000001</i>
     <i name="DEPER">      0.30000000</i>
     <i type="int" name="NRMM">     4</i>
     <i name="TIME">      0.40000000</i>
    </separator>
   </separator>
   <separator name="electronic mixer" >
    <i name="AMIX">      0.40000000</i>
    <i name="BMIX">      1.00000000</i>
    <i name="AMIN">      0.10000000</i>
    <i name="AMIX_MAG">      1.60000000</i>
    <i name="BMIX_MAG">      1.00000000</i>
    <separator name="electronic mixer details" >
     <i type="int" name="IMIX">     4</i>
     <i type="logical" name="MIXFIRST"> F  </i>
     <i type="int" name="MAXMIX">   -45</i>
     <i name="WC">    100.00000000</i>
     <i type="int" name="INIMIX">     1</i>
     <i type="int" name="MIXPRE">     1</i>
     <i type="int" name="MREMOVE">     5</i>
    </separator>
   </separator>
   <separator name="electronic dipolcorrection" >
    <i type="logical" name="LDIPOL"> F  </i>
    <i type="logical" name="LMONO"> F  </i>
    <i type="int" name="IDIPOL">     0</i>
    <i name="EPSILON">      1.00000000</i>
    <v name="DIPOL">   -100.00000000   -100.00000000   -100.00000000</v>
    <i name="EFIELD">      0.00000000</i>
   </separator>
  </separator>
  <separator name="grids" >
   <i type="int" name="NGX">    24</i>
   <i type="int" name="NGY">    24</i>
   <i type="int" name="NGZ">    24</i>
   <i type="int" name="NGXF">    48</i>
   <i type="int" name="NGYF">    48</i>
   <i type="int" name="NGZF">    48</i>
   <i type="logical" name="ADDGRID"> F  </i>
  </separator>
  <separator name="ionic" >
   <i type="int" name="NSW">   100</i>
   <i type="int" name="IBRION">     2</i>
   <i type="int" name="MDALGO">     0</i>
   <i type="int" name="ISIF">     3</i>
   <i name="PSTRESS">    500.00000000</i>
   <i name="EDIFFG">      0.00010000</i>
   <i type="int" name="NFREE">     1</i>
   <i name="POTIM">      0.01500000</i>
   <i name="SMASS">     -3.00000000</i>
   <i name="SCALEE">      1.00000000</i>
  </separator>
  <separator name="ionic md" >
   <i name="TEBEG">      0.00010000</i>
   <i name="TEEND">      0.00010000</i>
   <i type="int" name="NBLOCK">     1</i>
   <i type="int" name="KBLOCK">   100</i>
   <i type="int" name="NPACO">   256</i>
   <i name="APACO">     16.00000000</i>
  </separator>
  <separator name="symmetry" >
   <i type="int" name="ISYM">     2</i>
   <i name="SYMPREC">      0.00010000</i>
  </separator>
  <separator name="dos" >
   <i type="int" name="LORBIT">    11</i>
   <v name="RWIGS">     -1.00000000</v>
   <i type="int" name="NEDOS">   301</i>
   <i name="EMIN">     10.00000000</i>
   <i name="EMAX">    -10.00000000</i>
   <i name="EFERMI">      0.00000000</i>
  </separator>
  <separator name="writing" >
   <i type="int" name="NWRITE">     0</i>
   <i type="logical" name="LWAVE"> F  </i>
   <i type="logical" name="LDOWNSAMPLE"> F  </i>
   <i type="logical" name="LCHARG"> F  </i>
   <i type="logical" name="LPARD"> F  </i>
   <i type="logical" name="LVTOT"> F  </i>
   <i type="logical" name="LVHAR"> F  </i>
   <i type="logical" name="LELF"> F  </i>
   <i type="logical" name="LOPTICS"> F  </i>
   <v name="STM">      0.00000000      0.00000000      0.00000000      0.00000000      0.00000000      0.00000000      0.00000000</v>
  </separator>
  <separator name="performance" >
   <i type="int" name="NPAR">     4</i>
   <i type="int" name="NSIM">     4</i>
   <i type="int" name="NBLK">    -1</i>
   <i type="logical" name="LPLANE"> T  </i>
   <i type="logical" name="LSCALAPACK"> T  </i>
   <i type="logical" name="LSCAAWARE"> F  </i>
   <i type="logical" name="LSCALU"> F  </i>
   <i type="logical" name="LASYNC"> F  </i>
   <i type="logical" name="LORBITALREAL"> F  </i>
  </separator>
  <separator name="miscellaneous" >
   <i type="int" name="IDIOT">     3</i>
   <i type="int" name="ISPECIAL">     0</i>
   <i type="logical" name="LMUSIC"> F  </i>
   <v name="POMASS">     12.01100000</v>
   <v name="DARWINR">      0.00000000</v>
   <v name="DARWINV">      1.00000000</v>
   <i type="logical" name="LCORR"> T  </i>
  </separator>
  <i type="logical" name="GGA_COMPAT"> T  </i>
  <i type="logical" name="LBERRY"> F  </i>
  <i type="int" name="ICORELEVEL">     0</i>
  <i type="logical" name="LDAU"> F  </i>
  <i type="int" name="I_CONSTRAINED_M">     0</i>
  <separator name="electronic exchange-correlation" >
   <i type="string" name="GGA">--</i>
   <i type="int" name="VOSKOWN">     0</i>
   <i type="logical" name="LHFCALC"> F  </i>
   <i type="string" name="PRECFOCK"></i>
   <i type="logical" name="LSYMGRAD"> F  </i>
   <i type="logical" name="LHFONE"> F  </i>
   <i type="logical" name="LRHFCALC"> F  </i>
   <i type="logical" name="LTHOMAS"> F  </i>
   <i type="logical" name="LMODELHF"> F  </i>
   <i name="ENCUT4O">     -1.00000000</i>
   <i type="int" name="EXXOEP">     0</i>
   <i type="int" name="FOURORBIT">     0</i>
   <i name="AEXX">      0.00000000</i>
   <i name="HFALPHA">      0.00000000</i>
   <i name="MCALPHA">      0.00000000</i>
   <i name="ALDAX">      1.00000000</i>
   <i name="AGGAX">      1.00000000</i>
   <i name="ALDAC">      1.00000000</i>
   <i name="AGGAC">      1.00000000</i>
   <i type="int" name="NKREDX">     1</i>
   <i type="int" name="NKREDY">     1</i>
   <i type="int" name="NKREDZ">     1</i>
   <i type="logical" name="SHIFTRED"> F  </i>
   <i type="logical" name="ODDONLY"> F  </i>
   <i type="logical" name="EVENONLY"> F  </i>
   <i type="int" name="LMAXFOCK">     0</i>
   <i type="int" name="NMAXFOCKAE">     0</i>
   <i type="logical" name="LFOCKAEDFT"> F  </i>
   <i name="HFSCREEN">      0.00000000</i>
   <i name="HFSCREENC">      0.00000000</i>
   <i type="int" name="NBANDSGWLOW">     0</i>
  </separator>
  <separator name="vdW DFT" >
   <i type="logical" name="LUSE_VDW"> F  </i>
   <i name="Zab_VDW">     -0.84910000</i>
   <i name="PARAM1">      0.12340000</i>
   <i name="PARAM2">      1.00000000</i>
   <i name="PARAM3">      0.00000000</i>
  </separator>
  <separator name="model GW" >
   <i type="int" name="MODEL_GW">     0</i>
   <i name="MODEL_EPS0">      3.24849994</i>
   <i name="MODEL_ALPHA">      1.00000000</i>
  </separator>
  <separator name="linear response parameters" >
   <i type="logical" name="LEPSILON"> F  </i>
   <i type="logical" name="LRPA"> F  </i>
   <i type="logical" name="LNABLA"> F  </i>
   <i type="logical" name="LVEL"> F  </i>
   <i type="int" name="KINTER">     0</i>
   <i name="CSHIFT">      0.10000000</i>
   <i name="OMEGAMAX">     -1.00000000</i>
   <i name="DEG_THRESHOLD">      0.00200000</i>
   <i name="RTIME">     -0.10000000</i>
   <i name="WPLASMAI">      0.00000000</i>
   <v name="DFIELD">      0.00000000      0.00000000      0.00000000</v>
   <v name="WPLASMA">      0.00000000      0.00000000      0.00000000      0.00000000      0.00000000      0.00000000      0.00000000      0.00000000      0.00000000</v>
  </separator>
  <separator name="orbital magnetization" >
   <i type="logical" name="NUCIND"> F  </i>
   <v name="MAGPOS">      0.00000000      0.00000000      0.00000000</v>
   <i type="logical" name="LNICSALL"> T  </i>
   <i type="logical" name="ORBITALMAG"> F  </i>
   <i type="logical" name="LMAGBLOCH"> F  </i>
   <i type="logical" name="LCHIMAG"> F  </i>
   <i type="logical" name="LGAUGE"> T  </i>
   <i type="int" name="MAGATOM">     0</i>
   <v name="MAGDIPOL">      0.00000000      0.00000000      0.00000000</v>
   <v name="AVECCONST">      0.00000000      0.00000000      0.00000000</v>
  </separator>
  <separator name="response functions" >
   <i type="logical" name="LADDER"> F  </i>
   <i type="logical" name="LRPAFORCE"> F  </i>
   <i type="logical" name="LFXC"> F  </i>
   <i type="logical" name="LHARTREE"> T  </i>
   <i type="int" name="IBSE">     0</i>
   <v type="int" name="KPOINT">    -1     0     0     0</v>
   <i type="logical" name="LTCTE"> F  </i>
   <i type="logical" name="LTETE"> F  </i>
   <i type="logical" name="LTRIPLET"> F  </i>
   <i type="logical" name="LFXCEPS"> F  </i>
   <i type="logical" name="LFXHEG"> F  </i>
   <i type="int" name="NATURALO">     2</i>
   <i type="logical" name="L2ORDER"> F  </i>
   <i type="logical" name="LMP2LT"> F  </i>
   <i type="logical" name="LUSEW"> F  </i>
   <i name="ENCUTGW">     -2.00000000</i>
   <i name="ENCUTGWSOFT">     -2.00000000</i>
   <i name="ENCUTLF">     -1.00000000</i>
   <i type="int" name="LMAXMP2">    -1</i>
   <i name="SCISSOR">      0.00000000</i>
   <i type="int" name="NOMEGA">     0</i>
   <i type="int" name="NOMEGAR">     0</i>
   <i type="int" name="NBANDSGW">    -1</i>
   <i type="int" name="NBANDSO">    -1</i>
   <i type="int" name="NBANDSV">    -1</i>
   <i type="int" name="NELM">     1</i>
   <i type="int" name="NELMHF">     1</i>
   <i type="int" name="DIM">     3</i>
   <i type="int" name="ANTIRES">     0</i>
   <i name="OMEGAMAX">    -30.00000000</i>
   <i name="OMEGAMIN">    -30.00000000</i>
   <i name="OMEGATL">   -200.00000000</i>
   <i type="int" name="OMEGAGRID">   140</i>
   <i name="CSHIFT">     -0.10000000</i>
   <i type="logical" name="SELFENERGY"> F  </i>
   <i type="logical" name="LSPECTRAL"> F  </i>
   <i type="logical" name="LSPECTRALGW"> F  </i>
   <i type="logical" name="LSINGLES"> F  </i>
   <i type="logical" name="LFERMIGW"> F  </i>
   <i type="logical" name="ODDONLYGW"> F  </i>
   <i type="logical" name="EVENONLYGW"> F  </i>
   <i type="int" name="NKREDLFX">     1</i>
   <i type="int" name="NKREDLFY">     1</i>
   <i type="int" name="NKREDLFZ">     1</i>
   <i type="int" name="MAXMEM">  2800</i>
   <i type="int" name="TELESCOPE">     0</i>
   <i type="int" name="TAUPAR">     1</i>
   <i type="int" name="OMEGAPAR">    -1</i>
   <i name="LAMBDA">      1.00000000</i>
  </separator>
  <separator name="External order field" >
   <i name="OFIELD_KAPPA">      0.00000000</i>
   <v name="OFIELD_K">      0.00000000      0.00000000      0.00000000</v>
   <i name="OFIELD_Q6_NEAR">      0.00000000</i>
   <i name="OFIELD_Q6_FAR">      0.00000000</i>
   <i name="OFIELD_A">      0.00000000</i>
  </separator>
 </parameters>
 <atominfo>
  <atoms>       8 </atoms>
  <types>       1 </types>
  <array name="atoms" >
   <dimension dim="1">ion</dimension>
   <field type="string">element</field>
   <field type="int">atomtype</field>
   <set>
    <rc><c>C </c><c>   1</c></rc>
    <rc><c>C </c><c>   1</c></rc>
    <rc><c>C </c><c>   1</c></rc>
    <rc><c>C </c><c>   1</c></rc>
    <rc><c>C </c><c>   1</c></rc>
    <rc><c>C </c><c>   1</c></rc>
    <rc><c>C </c><c>   1</c></rc>
    <rc><c>C </c><c>   1</c></rc>
   </set>
  </array>
  <array name="atomtypes" >
   <dimension dim="1">type</dimension>
   <field type="int">atomspertype</field>
   <field type="string">element</field>
   <field>mass</field>
   <field>valence</field>
   <field type="string">pseudopotential</field>
   <set>
    <rc><c>   8</c><c>C </c><c>     12.01100000</c><c>      4.00000000</c><c> PAW_PBE C 08Apr2002                    </c></rc>
   </set>
  </array>
 </atominfo>
 <structure name="initialpos" >
  <crystal>
   <varray name="basis" >
    <v>       3.51188700      -0.00000000      -0.00000000 </v>
    <v>       0.00000000       3.51188700      -0.00000000 </v>
    <v>       0.00000000       0.00000000       3.51188700 </v>
   </varray>
   <i name="volume">     43.31333259 </i>
   <varray name="rec_basis" >
    <v>       0.28474720      -0.00000000       0.00000000 </v>
    <v>       0.00000000       0.28474720      -0.00000000 </v>
    <v>       0.00000000       0.00000000       0.28474720 </v>
   </varray>
  </crystal>
  <varray name="positions" >
   <v>       0.75669600       0.75669600       0.75669600 </v>
   <v>       0.00669500       0.50669600       0.00669500 </v>
   <v>       0.50669600       0.50669600       0.50669600 </v>
   <v>       0.00669500       0.00669500       0.50669600 </v>
   <v>       0.50669600       0.00669500       0.00669500 </v>
   <v>       0.75669600       0.25669600       0.25669600 </v>
   <v>       0.25669600       0.25669600       0.75669600 </v>
   <v>       0.25669600       0.75669600       0.25669600 </v>
  </varray>
 </structure>
 <calculation>
  <scstep>
   <time name="dav">    0.59    0.59</time>
   <time name="total">    0.65    0.65</time>
   <energy>
    <i name="alphaZ">    120.39550375 </i>
    <i name="ewald">  -1413.59899669 </i>
    <i name="hartreedc">     -2.58221799 </i>
    <i name="XCdc">    109.41487070 </i>
    <i name="pawpsdc">    103.69076704 </i>
    <i name="pawaedc">   -108.69556966 </i>
    <i name="eentropy">      0.00000000 </i>
    <i name="bandstr">    -33.51295717 </i>
    <i name="atom">   1177.01779097 </i>
    <i name="e_fr_energy">    -47.87080904 </i>
    <i name="e_wo_entrp">    -47.87080904 </i>
    <i name="e_0_energy">    -47.87080904 </i>
   </energy>
  </scstep>
  <scstep>
   <time name="dav">    0.69    0.69</time>
   <time name="total">    0.70    0.70</time>
   <energy>
    <i name="e_fr_energy">   -179.37952034 </i>
    <i name="e_wo_entrp">   -179.37952034 </i>
    <i name="e_0_energy">   -179.37952034 </i>
   </energy>
  </scstep>
  <scstep>
   <time name="dav">    0.71    0.71</time>
   <time name="total">    0.72    0.72</time>
   <energy>
    <i name="e_fr_energy">   -184.66525852 </i>
    <i name="e_wo_entrp">   -184.66525852 </i>
    <i name="e_0_energy">   -184.66525852 </i>
   </energy>
  </scstep>
  <scstep>
   <time name="dav">    0.70    0.70</time>
   <time name="total">    0.70    0.70</time>
   <energy>
    <i name="e_fr_energy">   -184.74605421 </i>
    <i name="e_wo_entrp">   -184.74605421 </i>
    <i name="e_0_energy">   -184.74605421 </i>
   </energy>
  </scstep>
  <scstep>
   <time name="dav">    0.71    0.71</time>
   <time name="total">    0.74    0.74</time>
   <energy>
    <i name="e_fr_energy">   -184.74812255 </i>
    <i name="e_wo_entrp">   -184.74812255 </i>
    <i name="e_0_energy">   -184.74812255 </i>
   </energy>
  </scstep>
  <scstep>
   <time name="dav">    0.60    0.60</time>
   <time name="total">    0.65    0.65</time>
   <energy>
    <i name="e_fr_energy">   -102.46394007 </i>
    <i name="e_wo_entrp">   -102.46394007 </i>
    <i name="e_0_energy">   -102.46394007 </i>
   </energy>
  </scstep>
  <scstep>
   <time name="dav">    0.64    0.64</time>
   <time name="total">    0.69    0.69</time>
   <energy>
    <i name="e_fr_energy">    -72.27754937 </i>
    <i name="e_wo_entrp">    -72.27754937 </i>
    <i name="e_0_energy">    -72.27754937 </i>
   </energy>
  </scstep>
  <scstep>
   <time name="dav">    0.66    0.66</time>
   <time name="total">    0.71    0.71</time>
   <energy>
    <i name="e_fr_energy">    -72.53052689 </i>
    <i name="e_wo_entrp">    -72.53052689 </i>
    <i name="e_0_energy">    -72.53052689 </i>
   </energy>
  </scstep>
  <scstep>
   <time name="dav">    0.63    0.63</time>
   <time name="total">    0.68    0.68</time>
   <energy>
    <i name="e_fr_energy">    -72.57042023 </i>
    <i name="e_wo_entrp">    -72.57042023 </i>
    <i name="e_0_energy">    -72.57042023 </i>
   </energy>
  </scstep>
  <scstep>
   <time name="dav">    0.63    0.63</time>
   <time name="total">    0.68    0.68</time>
   <energy>
    <i name="e_fr_energy">    -72.58145661 </i>
    <i name="e_wo_entrp">    -72.58145661 </i>
    <i name="e_0_energy">    -72.58145661 </i>
   </energy>
  </scstep>
  <scstep>
   <time name="dav">    0.65    0.65</time>
   <time name="total">    0.70    0.70</time>
   <energy>
    <i name="e_fr_energy">    -72.58204422 </i>
    <i name="e_wo_entrp">    -72.58204422 </i>
    <i name="e_0_energy">    -72.58204422 </i>
   </energy>
  </scstep>
  <scstep>
   <time name="dav">    0.61    0.61</time>
   <time name="total">    0.66    0.66</time>
   <energy>
    <i name="e_fr_energy">    -72.58236408 </i>
    <i name="e_wo_entrp">    -72.58236408 </i>
    <i name="e_0_energy">    -72.58236408 </i>
   </energy>
  </scstep>
  <scstep>
   <time name="dav">    0.64    0.65</time>
   <time name="total">    0.70    0.70</time>
   <energy>
    <i name="e_fr_energy">    -72.58237272 </i>
    <i name="e_wo_entrp">    -72.58237272 </i>
    <i name="e_0_energy">    -72.58237272 </i>
   </energy>
  </scstep>
  <scstep>
   <time name="dav">    0.50    0.50</time>
   <time name="total">    0.52    0.52</time>
   <energy>
    <i name="alphaZ">    120.39550375 </i>
    <i name="ewald">  -1413.59899669 </i>
    <i name="hartreedc">   -102.89108229 </i>
    <i name="XCdc">    119.03953734 </i>
    <i name="pawpsdc">    552.06651088 </i>
    <i name="pawaedc">   -562.31275548 </i>
    <i name="eentropy">      0.00000000 </i>
    <i name="bandstr">     37.70111815 </i>
    <i name="atom">   1177.01779097 </i>
    <i name="e_fr_energy">    -72.58237338 </i>
    <i name="e_wo_entrp">    -72.58237338 </i>
    <i name="e_0_energy">    -72.58237338 </i>
   </energy>
  </scstep>
  <structure>
   <crystal>
    <varray name="basis" >
     <v>       3.51188700      -0.00000000      -0.00000000 </v>
     <v>       0.00000000       3.51188700      -0.00000000 </v>
     <v>       0.00000000       0.00000000       3.51188700 </v>
    </varray>
    <i name="volume">     43.31333259 </i>
    <varray name="rec_basis" >
     <v>       0.28474720      -0.00000000       0.00000000 </v>
     <v>       0.00000000       0.28474720      -0.00000000 </v>
     <v>       0.00000000       0.00000000       0.28474720 </v>
    </varray>
   </crystal>
   <varray name="positions" >
    <v>       0.75669600       0.75669600       0.75669600 </v>
    <v>       0.00669500       0.50669600       0.00669500 </v>
    <v>       0.50669600       0.50669600       0.50669600 </v>
    <v>       0.00669500       0.00669500       0.50669600 </v>
    <v>       0.50669600       0.00669500       0.00669500 </v>
    <v>       0.75669600       0.25669600       0.25669600 </v>
    <v>       0.25669600       0.25669600       0.75669600 </v>
    <v>       0.25669600       0.75669600       0.25669600 </v>
   </varray>
  </structure>
  <varray name="forces" >
   <v>      -0.00000000      -0.00000000       0.00000000 </v>
   <v>       0.00000000      -0.00000000      -0.00000000 </v>
   <v>       0.00000000      -0.00000000       0.00000000 </v>
   <v>       0.00000000      -0.00000000       0.00000000 </v>
   <v>       0.00000000       0.00000000      -0.00000000 </v>
   <v>      -0.00000000       0.00000000       0.00000000 </v>
   <v>      -0.00000000       0.00000000       0.00000000 </v>
   <v>       0.00000000       0.00000000       0.00000000 </v>
  </varray>
  <varray name="stress" >
   <v>     207.46135422       0.00000000      -0.00000000 </v>
   <v>      -0.00000000     207.46135422       0.00000000 </v>
   <v>       0.00000000      -0.00000000     207.46135422 </v>
  </varray>
  <energy>
   <i name="e_fr_energy">    -59.06535134 </i>
   <i name="e_wo_entrp">    -59.06535134 </i>
   <i name="e_0_energy">      0.00000000 </i>
  </energy>
  <time name="totalsc">    9.68    9.70</time>
 </calculation>
 <calculation>
  <scstep>
   <time name="dav">    0.61    0.61</time>
   <time name="total">    0.66    0.66</time>
   <energy>
    <i name="alphaZ">    120.91374520 </i>
    <i name="ewald">  -1415.62436848 </i>
    <i name="hartreedc">   -103.04088650 </i>
    <i name="XCdc">    119.20157065 </i>
    <i name="pawpsdc">    552.06875787 </i>
    <i name="pawaedc">   -562.31468184 </i>
    <i name="eentropy">      0.00000000 </i>
    <i name="bandstr">     39.22082570 </i>
    <i name="atom">   1177.01779097 </i>
    <i name="e_fr_energy">    -72.55724641 </i>
    <i name="e_wo_entrp">    -72.55724641 </i>
    <i name="e_0_energy">    -72.55724641 </i>
   </energy>
  </scstep>
  <scstep>
   <time name="dav">    0.66    0.66</time>
   <time name="total">    0.71    0.71</time>
   <energy>
    <i name="e_fr_energy">    -72.55705279 </i>
    <i name="e_wo_entrp">    -72.55705279 </i>
    <i name="e_0_energy">    -72.55705279 </i>
   </energy>
  </scstep>
  <scstep>
   <time name="dav">    0.60    0.60</time>
   <time name="total">    0.65    0.65</time>
   <energy>
    <i name="e_fr_energy">    -72.55696695 </i>
    <i name="e_wo_entrp">    -72.55696695 </i>
    <i name="e_0_energy">    -72.55696695 </i>
   </energy>
  </scstep>
  <scstep>
   <time name="dav">    0.58    0.58</time>
   <time name="total">    0.60    0.60</time>
   <energy>
    <i name="alphaZ">    120.91374520 </i>
    <i name="ewald">  -1415.62436848 </i>
    <i name="hartreedc">   -102.66375396 </i>
    <i name="XCdc">    119.16648734 </i>
    <i name="pawpsdc">    554.30126803 </i>
    <i name="pawaedc">   -564.55979009 </i>
    <i name="eentropy">      0.00000000 </i>
    <i name="bandstr">     38.89165381 </i>
    <i name="atom">   1177.01779097 </i>
    <i name="e_fr_energy">    -72.55696717 </i>
    <i name="e_wo_entrp">    -72.55696717 </i>
    <i name="e_0_energy">    -72.55696717 </i>
   </energy>
  </scstep>
  <structure>
   <crystal>
    <varray name="basis" >
     <v>       3.50686245       0.00000000      -0.00000000 </v>
     <v>      -0.00000000       3.50686245       0.00000000 </v>
     <v>       0.00000000      -0.00000000       3.50686245 </v>
    </varray>
    <i name="volume">     43.12768980 </i>
    <varray name="rec_basis" >
     <v>       0.28515518       0.00000000      -0.00000000 </v>
     <v>      -0.00000000       0.28515518       0.00000000 </v>
     <v>       0.00000000      -0.00000000       0.28515518 </v>
    </varray>
   </crystal>
   <varray name="positions" >
    <v>       0.75669600       0.75669600       0.75669600 </v>
    <v>       0.00669500       0.50669600       0.00669500 </v>
    <v>       0.50669600       0.50669600       0.50669600 </v>
    <v>       0.00669500       0.00669500       0.50669600 </v>
    <v>       0.50669600       0.00669500       0.00669500 </v>
    <v>       0.75669600       0.25669600       0.25669600 </v>
    <v>       0.25669600       0.25669600       0.75669600 </v>
    <v>       0.25669600       0.75669600       0.25669600 </v>
   </varray>
  </structure>
  <varray name="forces" >
   <v>       0.00000000      -0.00000000       0.00000000 </v>
   <v>      -0.00000000      -0.00000000       0.00000000 </v>
   <v>      -0.00000000      -0.00000000      -0.00000000 </v>
   <v>      -0.00000000       0.00000000       0.00000000 </v>
   <v>       0.00000000      -0.00000000       0.00000000 </v>
   <v>       0.00000000      -0.00000000      -0.00000000 </v>
   <v>      -0.00000000       0.00000000      -0.00000000 </v>
   <v>       0.00000000       0.00000000      -0.00000000 </v>
  </varray>
  <varray name="stress" >
   <v>     231.30982816      -0.00000000       0.00000000 </v>
   <v>       0.00000000     231.30982816       0.00000000 </v>
   <v>      -0.00000000       0.00000000     231.30982816 </v>
  </varray>
  <energy>
   <i name="e_fr_energy">    -59.09787966 </i>
   <i name="e_wo_entrp">    -59.09787966 </i>
   <i name="e_0_energy">      0.00000000 </i>
  </energy>
  <time name="totalsc">    2.80    2.81</time>
 </calculation>
 <calculation>
  <scstep>
   <time name="dav">    0.62    0.62</time>
   <time name="total">    0.67    0.67</time>
   <energy>
    <i name="alphaZ">    122.48642723 </i>
    <i name="ewald">  -1421.73545701 </i>
    <i name="hartreedc">   -103.10776783 </i>
    <i name="XCdc">    119.65462130 </i>
    <i name="pawpsdc">    554.41937740 </i>
    <i name="pawaedc">   -564.67912260 </i>
    <i name="eentropy">      0.00000000 </i>
    <i name="bandstr">     43.47711994 </i>
    <i name="atom">   1177.01779097 </i>
    <i name="e_fr_energy">    -72.46701060 </i>
    <i name="e_wo_entrp">    -72.46701060 </i>
    <i name="e_0_energy">    -72.46701060 </i>
   </energy>
  </scstep>
  <scstep>
   <time name="dav">    0.65    0.65</time>
   <time name="total">    0.70    0.70</time>
   <energy>
    <i name="e_fr_energy">    -72.46523282 </i>
    <i name="e_wo_entrp">    -72.46523282 </i>
    <i name="e_0_energy">    -72.46523282 </i>
   </energy>
  </scstep>
  <scstep>
   <time name="dav">    0.59    0.59</time>
   <time name="total">    0.64    0.64</time>
   <energy>
    <i name="e_fr_energy">    -72.46443118 </i>
    <i name="e_wo_entrp">    -72.46443118 </i>
    <i name="e_0_energy">    -72.46443118 </i>
   </energy>
  </scstep>
  <scstep>
   <time name="dav">    0.63    0.63</time>
   <time name="total">    0.68    0.68</time>
   <energy>
    <i name="e_fr_energy">    -72.46442951 </i>
    <i name="e_wo_entrp">    -72.46442951 </i>
    <i name="e_0_energy">    -72.46442951 </i>
   </energy>
  </scstep>
  <scstep>
   <time name="dav">    0.45    0.45</time>
   <time name="total">    0.47    0.47</time>
   <energy>
    <i name="alphaZ">    122.48642723 </i>
    <i name="ewald">  -1421.73545701 </i>
    <i name="hartreedc">   -101.97119645 </i>
    <i name="XCdc">    119.54900954 </i>
    <i name="pawpsdc">    561.62811656 </i>
    <i name="pawaedc">   -571.93053106 </i>
    <i name="eentropy">      0.00000000 </i>
    <i name="bandstr">     42.49141044 </i>
    <i name="atom">   1177.01779097 </i>
    <i name="e_fr_energy">    -72.46442977 </i>
    <i name="e_wo_entrp">    -72.46442977 </i>
    <i name="e_0_energy">    -72.46442977 </i>
   </energy>
  </scstep>
  <structure>
   <crystal>
    <varray name="basis" >
     <v>       3.49178880       0.00000000      -0.00000000 </v>
     <v>      -0.00000000       3.49178880       0.00000000 </v>
     <v>       0.00000000      -0.00000000       3.49178880 </v>
    </varray>
    <i name="volume">     42.57394565 </i>
    <varray name="rec_basis" >
     <v>       0.28638616       0.00000000      -0.00000000 </v>
     <v>      -0.00000000       0.28638616       0.00000000 </v>
     <v>       0.00000000      -0.00000000       0.28638616 </v>
    </varray>
   </crystal>
   <varray name="positions" >
    <v>       0.75669600       0.75669600       0.75669600 </v>
    <v>       0.00669500       0.50669600       0.00669500 </v>
    <v>       0.50669600       0.50669600       0.50669600 </v>
    <v>       0.00669500       0.00669500       0.50669600 </v>
    <v>       0.50669600       0.00669500       0.00669500 </v>
    <v>       0.75669600       0.25669600       0.25669600 </v>
    <v>       0.25669600       0.25669600       0.75669600 </v>
    <v>       0.25669600       0.75669600       0.25669600 </v>
   </varray>
  </structure>
  <varray name="forces" >
   <v>       0.00000000       0.00000000      -0.00000000 </v>
   <v>      -0.00000000       0.00000000      -0.00000000 </v>
   <v>      -0.00000000      -0.00000000       0.00000000 </v>
   <v>      -0.00000000      -0.00000000       0.00000000 </v>
   <v>      -0.00000000      -0.00000000      -0.00000000 </v>
   <v>       0.00000000      -0.00000000      -0.00000000 </v>
   <v>       0.00000000       0.00000000       0.00000000 </v>
   <v>       0.00000000       0.00000000      -0.00000000 </v>
  </varray>
  <varray name="stress" >
   <v>     304.94830441      -0.00000000       0.00000000 </v>
   <v>       0.00000000     304.94830441      -0.00000000 </v>
   <v>      -0.00000000       0.00000000     304.94830441 </v>
  </varray>
  <energy>
   <i name="e_fr_energy">    -59.17815214 </i>
   <i name="e_wo_entrp">    -59.17815214 </i>
   <i name="e_0_energy">      0.00000000 </i>
  </energy>
  <time name="totalsc">    3.35    3.36</time>
 </calculation>
 <calculation>
  <scstep>
   <time name="dav">    0.60    0.60</time>
   <time name="total">    0.65    0.66</time>
   <energy>
    <i name="alphaZ">    125.71456758 </i>
    <i name="ewald">  -1434.11729782 </i>
    <i name="hartreedc">   -102.85874809 </i>
    <i name="XCdc">    120.53682043 </i>
    <i name="pawpsdc">    561.66239533 </i>
    <i name="pawaedc">   -571.96515782 </i>
    <i name="eentropy">      0.00000000 </i>
    <i name="bandstr">     51.79569514 </i>
    <i name="atom">   1177.01779097 </i>
    <i name="e_fr_energy">    -72.21393427 </i>
    <i name="e_wo_entrp">    -72.21393427 </i>
    <i name="e_0_energy">    -72.21393427 </i>
   </energy>
  </scstep>
  <scstep>
   <time name="dav">    0.64    0.64</time>
   <time name="total">    0.69    0.69</time>
   <energy>
    <i name="e_fr_energy">    -72.20678983 </i>
    <i name="e_wo_entrp">    -72.20678983 </i>
    <i name="e_0_energy">    -72.20678983 </i>
   </energy>
  </scstep>
  <scstep>
   <time name="dav">    0.59    0.59</time>
   <time name="total">    0.64    0.64</time>
   <energy>
    <i name="e_fr_energy">    -72.20354944 </i>
    <i name="e_wo_entrp">    -72.20354944 </i>
    <i name="e_0_energy">    -72.20354944 </i>
   </energy>
  </scstep>
  <scstep>
   <time name="dav">    0.64    0.64</time>
   <time name="total">    0.69    0.69</time>
   <energy>
    <i name="e_fr_energy">    -72.20353884 </i>
    <i name="e_wo_entrp">    -72.20353884 </i>
    <i name="e_0_energy">    -72.20353884 </i>
   </energy>
  </scstep>
  <scstep>
   <time name="dav">    0.57    0.57</time>
   <time name="total">    0.62    0.62</time>
   <energy>
    <i name="e_fr_energy">    -72.20353765 </i>
    <i name="e_wo_entrp">    -72.20353765 </i>
    <i name="e_0_energy">    -72.20353765 </i>
   </energy>
  </scstep>
  <scstep>
   <time name="dav">    0.42    0.42</time>
   <time name="total">    0.44    0.44</time>
   <energy>
    <i name="alphaZ">    125.71456758 </i>
    <i name="ewald">  -1434.11729782 </i>
    <i name="hartreedc">   -100.58412535 </i>
    <i name="XCdc">    120.32569915 </i>
    <i name="pawpsdc">    576.64559797 </i>
    <i name="pawaedc">   -587.03485631 </i>
    <i name="eentropy">      0.00000000 </i>
    <i name="bandstr">     49.82908622 </i>
    <i name="atom">   1177.01779097 </i>
    <i name="e_fr_energy">    -72.20353758 </i>
    <i name="e_wo_entrp">    -72.20353758 </i>
    <i name="e_0_energy">    -72.20353758 </i>
   </energy>
  </scstep>
  <structure>
   <crystal>
    <varray name="basis" >
     <v>       3.46164149       0.00000000      -0.00000000 </v>
     <v>      -0.00000000       3.46164149       0.00000000 </v>
     <v>       0.00000000      -0.00000000       3.46164149 </v>
    </varray>
    <i name="volume">     41.48071776 </i>
    <varray name="rec_basis" >
     <v>       0.28888029       0.00000000      -0.00000000 </v>
     <v>      -0.00000000       0.28888029       0.00000000 </v>
     <v>       0.00000000      -0.00000000       0.28888029 </v>
    </varray>
   </crystal>
   <varray name="positions" >
    <v>       0.75669600       0.75669600       0.75669600 </v>
    <v>       0.00669500       0.50669600       0.00669500 </v>
    <v>       0.50669600       0.50669600       0.50669600 </v>
    <v>       0.00669500       0.00669500       0.50669600 </v>
    <v>       0.50669600       0.00669500       0.00669500 </v>
    <v>       0.75669600       0.25669600       0.25669600 </v>
    <v>       0.25669600       0.25669600       0.75669600 </v>
    <v>       0.25669600       0.75669600       0.25669600 </v>
   </varray>
  </structure>
  <varray name="forces" >
   <v>       0.00000000       0.00000000       0.00000000 </v>
   <v>      -0.00000000      -0.00000000       0.00000000 </v>
   <v>      -0.00000000      -0.00000000      -0.00000000 </v>
   <v>      -0.00000000      -0.00000000      -0.00000000 </v>
   <v>      -0.00000000      -0.00000000      -0.00000000 </v>
   <v>       0.00000000       0.00000000       0.00000000 </v>
   <v>       0.00000000      -0.00000000      -0.00000000 </v>
   <v>       0.00000000       0.00000000       0.00000000 </v>
  </varray>
  <varray name="stress" >
   <v>     462.60617973      -0.00000000       0.00000000 </v>
   <v>       0.00000000     462.60617973      -0.00000000 </v>
   <v>       0.00000000      -0.00000000     462.60617973 </v>
  </varray>
  <energy>
   <i name="e_fr_energy">    -59.25842938 </i>
   <i name="e_wo_entrp">    -59.25842938 </i>
   <i name="e_0_energy">      0.00000000 </i>
  </energy>
  <time name="totalsc">    3.92    3.93</time>
 </calculation>
 <calculation>
  <scstep>
   <time name="dav">    0.60    0.60</time>
   <time name="total">    0.65    0.65</time>
   <energy>
    <i name="alphaZ">    126.47203266 </i>
    <i name="ewald">  -1436.99185014 </i>
    <i name="hartreedc">   -100.78556755 </i>
    <i name="XCdc">    120.55461364 </i>
    <i name="pawpsdc">    576.61816100 </i>
    <i name="pawaedc">   -587.00715982 </i>
    <i name="eentropy">      0.00000000 </i>
    <i name="bandstr">     51.99258092 </i>
    <i name="atom">   1177.01779097 </i>
    <i name="e_fr_energy">    -72.12939831 </i>
    <i name="e_wo_entrp">    -72.12939831 </i>
    <i name="e_0_energy">    -72.12939831 </i>
   </energy>
  </scstep>
  <scstep>
   <time name="dav">    0.64    0.64</time>
   <time name="total">    0.69    0.69</time>
   <energy>
    <i name="e_fr_energy">    -72.12902341 </i>
    <i name="e_wo_entrp">    -72.12902341 </i>
    <i name="e_0_energy">    -72.12902341 </i>
   </energy>
  </scstep>
  <scstep>
   <time name="dav">    0.59    0.59</time>
   <time name="total">    0.64    0.64</time>
   <energy>
    <i name="e_fr_energy">    -72.12885646 </i>
    <i name="e_wo_entrp">    -72.12885646 </i>
    <i name="e_0_energy">    -72.12885646 </i>
   </energy>
  </scstep>
  <scstep>
   <time name="dav">    0.61    0.61</time>
   <time name="total">    0.63    0.63</time>
   <energy>
    <i name="alphaZ">    126.47203266 </i>
    <i name="ewald">  -1436.99185014 </i>
    <i name="hartreedc">   -100.26554501 </i>
    <i name="XCdc">    120.50632496 </i>
    <i name="pawpsdc">    579.95505903 </i>
    <i name="pawaedc">   -590.36205012 </i>
    <i name="eentropy">      0.00000000 </i>
    <i name="bandstr">     51.53938099 </i>
    <i name="atom">   1177.01779097 </i>
    <i name="e_fr_energy">    -72.12885666 </i>
    <i name="e_wo_entrp">    -72.12885666 </i>
    <i name="e_0_energy">    -72.12885666 </i>
   </energy>
  </scstep>
  <structure>
   <crystal>
    <varray name="basis" >
     <v>       3.45471684       0.00000000      -0.00000000 </v>
     <v>      -0.00000000       3.45471684       0.00000000 </v>
     <v>       0.00000000      -0.00000000       3.45471684 </v>
    </varray>
    <i name="volume">     41.23228184 </i>
    <varray name="rec_basis" >
     <v>       0.28945932       0.00000000      -0.00000000 </v>
     <v>      -0.00000000       0.28945932       0.00000000 </v>
     <v>       0.00000000      -0.00000000       0.28945932 </v>
    </varray>
   </crystal>
   <varray name="positions" >
    <v>       0.75669600       0.75669600       0.75669600 </v>
    <v>       0.00669500       0.50669600       0.00669500 </v>
    <v>       0.50669600       0.50669600       0.50669600 </v>
    <v>       0.00669500       0.00669500       0.50669600 </v>
    <v>       0.50669600       0.00669500       0.00669500 </v>
    <v>       0.75669600       0.25669600       0.25669600 </v>
    <v>       0.25669600       0.25669600       0.75669600 </v>
    <v>       0.25669600       0.75669600       0.25669600 </v>
   </varray>
  </structure>
  <varray name="forces" >
   <v>      -0.00000000      -0.00000000      -0.00000000 </v>
   <v>       0.00000000       0.00000000      -0.00000000 </v>
   <v>       0.00000000      -0.00000000       0.00000000 </v>
   <v>       0.00000000      -0.00000000       0.00000000 </v>
   <v>       0.00000000      -0.00000000      -0.00000000 </v>
   <v>      -0.00000000       0.00000000      -0.00000000 </v>
   <v>      -0.00000000       0.00000000      -0.00000000 </v>
   <v>      -0.00000000       0.00000000       0.00000000 </v>
  </varray>
  <varray name="stress" >
   <v>     500.93841176      -0.00000000       0.00000000 </v>
   <v>       0.00000000     500.93841176      -0.00000000 </v>
   <v>      -0.00000000       0.00000000     500.93841176 </v>
  </varray>
  <energy>
   <i name="e_fr_energy">    -59.26127919 </i>
   <i name="e_wo_entrp">    -59.26127919 </i>
   <i name="e_0_energy">      0.00000000 </i>
  </energy>
  <time name="totalsc">    2.76    2.77</time>
  <eigenvalues>
   <array>
    <dimension dim="1">band</dimension>
    <dimension dim="2">kpoint</dimension>
    <dimension dim="3">spin</dimension>
    <field>eigene</field>
    <field>occ</field>
    <set>
     <set comment="spin 1">
      <set comment="kpoint 1">
       <r>  -11.6124    1.0000 </r>
       <r>   -2.2763    1.0000 </r>
       <r>   -2.2762    1.0000 </r>
       <r>   -2.2762    1.0000 </r>
       <r>   -2.2762    1.0000 </r>
       <r>   -2.2762    1.0000 </r>
       <r>   -2.2762    1.0000 </r>
       <r>    4.2968    1.0000 </r>
       <r>    4.2968    1.0000 </r>
       <r>    4.2968    1.0000 </r>
       <r>    4.2969    1.0000 </r>
       <r>    4.2969    1.0000 </r>
       <r>    4.2969    1.0000 </r>
       <r>   11.2070    1.0000 </r>
       <r>   11.2070    1.0000 </r>
       <r>   11.2071    1.0000 </r>
       <r>   16.1546    0.0000 </r>
       <r>   16.1546    0.0000 </r>
       <r>   16.1546    0.0000 </r>
       <r>   16.1546    0.0000 </r>
       <r>   16.1546    0.0000 </r>
       <r>   16.1547    0.0000 </r>
       <r>   17.0613    0.0000 </r>
       <r>   17.0613    0.0000 </r>
       <r>   17.0613    0.0000 </r>
       <r>   26.7848    0.0000 </r>
       <r>   29.5856    0.0000 </r>
       <r>   29.5856    0.0000 </r>
      </set>
      <set comment="kpoint 2">
       <r>  -11.4585    1.0000 </r>
       <r>   -4.3448    1.0000 </r>
       <r>   -2.1711    1.0000 </r>
       <r>   -2.1711    1.0000 </r>
       <r>   -2.1710    1.0000 </r>
       <r>   -2.1710    1.0000 </r>
       <r>   -0.0606    1.0000 </r>
       <r>    3.9581    1.0000 </r>
       <r>    3.9582    1.0000 </r>
       <r>    3.9582    1.0000 </r>
       <r>    3.9582    1.0000 </r>
       <r>    4.4481    1.0000 </r>
       <r>    4.4481    1.0000 </r>
       <r>   10.5839    1.0000 </r>
       <r>   10.5839    1.0000 </r>
       <r>   10.8577    1.0000 </r>
       <r>   15.7011    0.0000 </r>
       <r>   16.7776    0.0000 </r>
       <r>   16.7776    0.0000 </r>
       <r>   16.7776    0.0000 </r>
       <r>   16.7777    0.0000 </r>
       <r>   16.9545    0.0000 </r>
       <r>   16.9576    0.0000 </r>
       <r>   17.8286    0.0000 </r>
       <r>   17.8287    0.0000 </r>
       <r>   26.8106    0.0000 </r>
       <r>   29.0349    0.0000 </r>
       <r>   29.0351    0.0000 </r>
      </set>
      <set comment="kpoint 3">
       <r>  -10.9980    1.0000 </r>
       <r>   -6.2074    1.0000 </r>
       <r>   -1.8807    1.0000 </r>
       <r>   -1.8807    1.0000 </r>
       <r>   -1.8807    1.0000 </r>
       <r>   -1.8806    1.0000 </r>
       <r>    2.2211    1.0000 </r>
       <r>    3.1696    1.0000 </r>
       <r>    3.1696    1.0000 </r>
       <r>    3.1696    1.0000 </r>
       <r>    3.1696    1.0000 </r>
       <r>    4.9011    1.0000 </r>
       <r>    4.9011    1.0000 </r>
       <r>    9.2845    1.0000 </r>
       <r>    9.2846    1.0000 </r>
       <r>    9.8720    1.0000 </r>
       <r>   15.5437    0.0000 </r>
       <r>   16.6461    0.0000 </r>
       <r>   18.1796    0.0000 </r>
       <r>   18.4229    0.0000 </r>
       <r>   18.4229    0.0000 </r>
       <r>   18.4229    0.0000 </r>
       <r>   18.4229    0.0000 </r>
       <r>   19.5382    0.0000 </r>
       <r>   19.5382    0.0000 </r>
       <r>   26.3156    0.0000 </r>
       <r>   27.6448    0.0000 </r>
       <r>   27.6448    0.0000 </r>
      </set>
      <set comment="kpoint 4">
       <r>  -10.2340    1.0000 </r>
       <r>   -7.8253    1.0000 </r>
       <r>   -1.5112    1.0000 </r>
       <r>   -1.5112    1.0000 </r>
       <r>   -1.5112    1.0000 </r>
       <r>   -1.5111    1.0000 </r>
       <r>    2.3681    1.0000 </r>
       <r>    2.3681    1.0000 </r>
       <r>    2.3681    1.0000 </r>
       <r>    2.3681    1.0000 </r>
       <r>    4.4658    1.0000 </r>
       <r>    5.6455    1.0000 </r>
       <r>    5.6455    1.0000 </r>
       <r>    7.9036    1.0000 </r>
       <r>    7.9036    1.0000 </r>
       <r>    8.3973    1.0000 </r>
       <r>   15.6271    0.0000 </r>
       <r>   16.2564    0.0000 </r>
       <r>   19.8752    0.0000 </r>
       <r>   20.6234    0.0000 </r>
       <r>   20.6234    0.0000 </r>
       <r>   20.6235    0.0000 </r>
       <r>   20.6235    0.0000 </r>
       <r>   21.5881    0.0000 </r>
       <r>   21.5881    0.0000 </r>
       <r>   24.4567    0.0000 </r>
       <r>   25.7820    0.0000 </r>
       <r>   25.7820    0.0000 </r>
      </set>
      <set comment="kpoint 5">
       <r>   -9.1731    1.0000 </r>
       <r>   -9.1730    1.0000 </r>
       <r>   -1.3178    1.0000 </r>
       <r>   -1.3177    1.0000 </r>
       <r>   -1.3177    1.0000 </r>
       <r>   -1.3176    1.0000 </r>
       <r>    2.0111    1.0000 </r>
       <r>    2.0111    1.0000 </r>
       <r>    2.0112    1.0000 </r>
       <r>    2.0112    1.0000 </r>
       <r>    6.5583    1.0000 </r>
       <r>    6.5584    1.0000 </r>
       <r>    6.6586    1.0000 </r>
       <r>    6.6586    1.0000 </r>
       <r>    6.6587    1.0000 </r>
       <r>    6.6587    1.0000 </r>
       <r>   15.8851    0.0000 </r>
       <r>   15.8852    0.0000 </r>
       <r>   22.0380    0.0000 </r>
       <r>   22.0380    0.0000 </r>
       <r>   22.2653    0.0000 </r>
       <r>   22.2653    0.0000 </r>
       <r>   22.2654    0.0000 </r>
       <r>   22.2654    0.0000 </r>
       <r>   23.7052    0.0000 </r>
       <r>   23.7052    0.0000 </r>
       <r>   23.7052    0.0000 </r>
       <r>   23.7052    0.0000 </r>
      </set>
      <set comment="kpoint 6">
       <r>  -11.3048    1.0000 </r>
       <r>   -4.2161    1.0000 </r>
       <r>   -4.2160    1.0000 </r>
       <r>   -2.1476    1.0000 </r>
       <r>   -2.0044    1.0000 </r>
       <r>   -0.0084    1.0000 </r>
       <r>   -0.0083    1.0000 </r>
       <r>    2.8959    1.0000 </r>
       <r>    4.0736    1.0000 </r>
       <r>    4.0736    1.0000 </r>
       <r>    4.1765    1.0000 </r>
       <r>    4.1766    1.0000 </r>
       <r>    4.5587    1.0000 </r>
       <r>    9.6802    1.0000 </r>
       <r>   10.0083    1.0000 </r>
       <r>   11.0140    1.0000 </r>
       <r>   16.3440    0.0000 </r>
       <r>   16.3440    0.0000 </r>
       <r>   16.3973    0.0000 </r>
       <r>   17.3843    0.0000 </r>
       <r>   17.5544    0.0000 </r>
       <r>   17.5544    0.0000 </r>
       <r>   18.0153    0.0000 </r>
       <r>   18.2155    0.0000 </r>
       <r>   18.3313    0.0000 </r>
       <r>   26.8810    0.0000 </r>
       <r>   28.4683    0.0000 </r>
       <r>   28.4684    0.0000 </r>
      </set>
      <set comment="kpoint 7">
       <r>  -10.8449    1.0000 </r>
       <r>   -6.0672    1.0000 </r>
       <r>   -3.8402    1.0000 </r>
       <r>   -2.0347    1.0000 </r>
       <r>   -1.6305    1.0000 </r>
       <r>    0.0795    1.0000 </r>
       <r>    1.8127    1.0000 </r>
       <r>    2.1357    1.0000 </r>
       <r>    3.1847    1.0000 </r>
       <r>    3.6031    1.0000 </r>
       <r>    4.4835    1.0000 </r>
       <r>    4.5021    1.0000 </r>
       <r>    4.7805    1.0000 </r>
       <r>    8.3226    1.0000 </r>
       <r>    8.7707    1.0000 </r>
       <r>   10.3914    1.0000 </r>
       <r>   16.1982    0.0000 </r>
       <r>   17.2457    0.0000 </r>
       <r>   17.2661    0.0000 </r>
       <r>   18.0335    0.0000 </r>
       <r>   18.7360    0.0000 </r>
       <r>   19.1233    0.0000 </r>
       <r>   19.5222    0.0000 </r>
       <r>   19.6294    0.0000 </r>
       <r>   20.3242    0.0000 </r>
       <r>   26.5293    0.0000 </r>
       <r>   26.9281    0.0000 </r>
       <r>   26.9968    0.0000 </r>
      </set>
      <set comment="kpoint 8">
       <r>  -10.0822    1.0000 </r>
       <r>   -7.6790    1.0000 </r>
       <r>   -3.2594    1.0000 </r>
       <r>   -2.1020    1.0000 </r>
       <r>   -1.0829    1.0000 </r>
       <r>   -0.0187    1.0000 </r>
       <r>    1.2024    1.0000 </r>
       <r>    2.1828    1.0000 </r>
       <r>    3.2396    1.0000 </r>
       <r>    3.9644    1.0000 </r>
       <r>    4.0189    1.0000 </r>
       <r>    5.2250    1.0000 </r>
       <r>    5.8929    1.0000 </r>
       <r>    6.9043    1.0000 </r>
       <r>    7.4283    1.0000 </r>
       <r>    9.1116    1.0000 </r>
       <r>   16.2859    0.0000 </r>
       <r>   16.9008    0.0000 </r>
       <r>   19.0314    0.0000 </r>
       <r>   20.3271    0.0000 </r>
       <r>   20.3759    0.0000 </r>
       <r>   21.0653    0.0000 </r>
       <r>   21.3550    0.0000 </r>
       <r>   21.5569    0.0000 </r>
       <r>   22.6722    0.0000 </r>
       <r>   24.8185    0.0000 </r>
       <r>   24.9605    0.0000 </r>
       <r>   25.1989    0.0000 </r>
      </set>
      <set comment="kpoint 9">
       <r>   -9.0233    1.0000 </r>
       <r>   -9.0232    1.0000 </r>
       <r>   -2.5884    1.0000 </r>
       <r>   -2.5883    1.0000 </r>
       <r>   -0.4692    1.0000 </r>
       <r>   -0.4692    1.0000 </r>
       <r>    1.4013    1.0000 </r>
       <r>    1.4014    1.0000 </r>
       <r>    3.4193    1.0000 </r>
       <r>    3.4194    1.0000 </r>
       <r>    5.5182    1.0000 </r>
       <r>    5.5183    1.0000 </r>
       <r>    6.2151    1.0000 </r>
       <r>    6.2151    1.0000 </r>
       <r>    7.4853    1.0000 </r>
       <r>    7.4854    1.0000 </r>
       <r>   16.5418    0.0000 </r>
       <r>   16.5418    0.0000 </r>
       <r>   21.0836    0.0000 </r>
       <r>   21.0837    0.0000 </r>
       <r>   22.4340    0.0000 </r>
       <r>   22.4340    0.0000 </r>
       <r>   22.7430    0.0000 </r>
       <r>   22.7430    0.0000 </r>
       <r>   23.3158    0.0000 </r>
       <r>   23.3158    0.0000 </r>
       <r>   23.7075    0.0000 </r>
       <r>   23.7075    0.0000 </r>
      </set>
      <set comment="kpoint 10">
       <r>  -10.3870    1.0000 </r>
       <r>   -5.6519    1.0000 </r>
       <r>   -5.6518    1.0000 </r>
       <r>   -2.3641    1.0000 </r>
       <r>   -1.1921    1.0000 </r>
       <r>    0.9231    1.0000 </r>
       <r>    1.7755    1.0000 </r>
       <r>    1.7755    1.0000 </r>
       <r>    3.5536    1.0000 </r>
       <r>    3.5536    1.0000 </r>
       <r>    4.6561    1.0000 </r>
       <r>    4.6562    1.0000 </r>
       <r>    5.3194    1.0000 </r>
       <r>    6.9612    1.0000 </r>
       <r>    7.6225    1.0000 </r>
       <r>   10.3859    1.0000 </r>
       <r>   17.1195    0.0000 </r>
       <r>   17.8994    0.0000 </r>
       <r>   17.8994    0.0000 </r>
       <r>   18.3278    0.0000 </r>
       <r>   19.8724    0.0000 </r>
       <r>   20.0265    0.0000 </r>
       <r>   20.1709    0.0000 </r>
       <r>   20.1710    0.0000 </r>
       <r>   22.6584    0.0000 </r>
       <r>   25.3818    0.0000 </r>
       <r>   25.3819    0.0000 </r>
       <r>   26.7085    0.0000 </r>
      </set>
      <set comment="kpoint 11">
       <r>   -9.6282    1.0000 </r>
       <r>   -7.2431    1.0000 </r>
       <r>   -4.9803    1.0000 </r>
       <r>   -3.1313    1.0000 </r>
       <r>   -0.5568    1.0000 </r>
       <r>    0.8831    1.0000 </r>
       <r>    1.0785    1.0000 </r>
       <r>    2.4606    1.0000 </r>
       <r>    3.1003    1.0000 </r>
       <r>    4.2312    1.0000 </r>
       <r>    4.8211    1.0000 </r>
       <r>    5.4787    1.0000 </r>
       <r>    5.5941    1.0000 </r>
       <r>    6.2983    1.0000 </r>
       <r>    6.3440    1.0000 </r>
       <r>    9.5458    1.0000 </r>
       <r>   17.9735    0.0000 </r>
       <r>   18.1516    0.0000 </r>
       <r>   18.4268    0.0000 </r>
       <r>   20.1992    0.0000 </r>
       <r>   20.8585    0.0000 </r>
       <r>   21.3734    0.0000 </r>
       <r>   21.5347    0.0000 </r>
       <r>   21.5476    0.0000 </r>
       <r>   23.9128    0.0000 </r>
       <r>   24.0936    0.0000 </r>
       <r>   24.7739    0.0000 </r>
       <r>   25.5031    0.0000 </r>
      </set>
      <set comment="kpoint 12">
       <r>   -8.5759    1.0000 </r>
       <r>   -8.5758    1.0000 </r>
       <r>   -4.0997    1.0000 </r>
       <r>   -4.0996    1.0000 </r>
       <r>    0.2350    1.0000 </r>
       <r>    0.2350    1.0000 </r>
       <r>    1.4979    1.0000 </r>
       <r>    1.4980    1.0000 </r>
       <r>    4.3133    1.0000 </r>
       <r>    4.3134    1.0000 </r>
       <r>    5.1801    1.0000 </r>
       <r>    5.1802    1.0000 </r>
       <r>    5.1908    1.0000 </r>
       <r>    5.1909    1.0000 </r>
       <r>    8.0732    1.0000 </r>
       <r>    8.0733    1.0000 </r>
       <r>   18.1840    0.0000 </r>
       <r>   18.1840    0.0000 </r>
       <r>   19.9651    0.0000 </r>
       <r>   19.9651    0.0000 </r>
       <r>   21.9262    0.0000 </r>
       <r>   21.9263    0.0000 </r>
       <r>   22.7157    0.0000 </r>
       <r>   22.7157    0.0000 </r>
       <r>   23.7146    0.0000 </r>
       <r>   23.7147    0.0000 </r>
       <r>   23.9287    0.0000 </r>
       <r>   23.9287    0.0000 </r>
      </set>
      <set comment="kpoint 13">
       <r>   -8.8768    1.0000 </r>
       <r>   -6.5281    1.0000 </r>
       <r>   -6.5280    1.0000 </r>
       <r>   -4.3818    1.0000 </r>
       <r>    0.1488    1.0000 </r>
       <r>    1.2565    1.0000 </r>
       <r>    2.0499    1.0000 </r>
       <r>    2.0499    1.0000 </r>
       <r>    3.0862    1.0000 </r>
       <r>    3.0862    1.0000 </r>
       <r>    4.2980    1.0000 </r>
       <r>    5.1176    1.0000 </r>
       <r>    6.4882    1.0000 </r>
       <r>    6.6613    1.0000 </r>
       <r>    6.6614    1.0000 </r>
       <r>    9.2926    1.0000 </r>
       <r>   18.2599    0.0000 </r>
       <r>   19.8577    0.0000 </r>
       <r>   20.2058    0.0000 </r>
       <r>   20.2058    0.0000 </r>
       <r>   20.5049    0.0000 </r>
       <r>   21.0576    0.0000 </r>
       <r>   21.0577    0.0000 </r>
       <r>   22.0681    0.0000 </r>
       <r>   24.3053    0.0000 </r>
       <r>   24.4449    0.0000 </r>
       <r>   24.4450    0.0000 </r>
       <r>   26.0103    0.0000 </r>
      </set>
      <set comment="kpoint 14">
       <r>   -7.8377    1.0000 </r>
       <r>   -7.8376    1.0000 </r>
       <r>   -5.5571    1.0000 </r>
       <r>   -5.5570    1.0000 </r>
       <r>    1.0335    1.0000 </r>
       <r>    1.0335    1.0000 </r>
       <r>    2.0439    1.0000 </r>
       <r>    2.0439    1.0000 </r>
       <r>    3.1063    1.0000 </r>
       <r>    3.1064    1.0000 </r>
       <r>    3.9939    1.0000 </r>
       <r>    3.9940    1.0000 </r>
       <r>    6.8168    1.0000 </r>
       <r>    6.8168    1.0000 </r>
       <r>    8.2723    1.0000 </r>
       <r>    8.2723    1.0000 </r>
       <r>   19.3866    0.0000 </r>
       <r>   19.3866    0.0000 </r>
       <r>   20.2286    0.0000 </r>
       <r>   20.2287    0.0000 </r>
       <r>   20.5907    0.0000 </r>
       <r>   20.5908    0.0000 </r>
       <r>   22.5339    0.0000 </r>
       <r>   22.5340    0.0000 </r>
       <r>   23.8514    0.0000 </r>
       <r>   23.8515    0.0000 </r>
       <r>   25.5538    0.0000 </r>
       <r>   25.5538    0.0000 </r>
      </set>
      <set comment="kpoint 15">
       <r>   -6.8224    1.0000 </r>
       <r>   -6.8222    1.0000 </r>
       <r>   -6.8222    1.0000 </r>
       <r>   -6.8222    1.0000 </r>
       <r>    1.9943    1.0000 </r>
       <r>    1.9943    1.0000 </r>
       <r>    1.9944    1.0000 </r>
       <r>    1.9944    1.0000 </r>
       <r>    2.9064    1.0000 </r>
       <r>    2.9065    1.0000 </r>
       <r>    2.9065    1.0000 </r>
       <r>    2.9065    1.0000 </r>
       <r>    7.8999    1.0000 </r>
       <r>    7.9000    1.0000 </r>
       <r>    7.9000    1.0000 </r>
       <r>    7.9001    1.0000 </r>
       <r>   19.6060    0.0000 </r>
       <r>   19.6061    0.0000 </r>
       <r>   19.6061    0.0000 </r>
       <r>   19.6062    0.0000 </r>
       <r>   21.9023    0.0000 </r>
       <r>   21.9023    0.0000 </r>
       <r>   21.9023    0.0000 </r>
       <r>   21.9023    0.0000 </r>
       <r>   24.6148    0.0000 </r>
       <r>   24.6148    0.0000 </r>
       <r>   24.6149    0.0000 </r>
       <r>   24.6149    0.0000 </r>
      </set>
      <set comment="kpoint 16">
       <r>  -11.1514    1.0000 </r>
       <r>   -4.0913    1.0000 </r>
       <r>   -4.0912    1.0000 </r>
       <r>   -4.0912    1.0000 </r>
       <r>    0.0007    1.0000 </r>
       <r>    0.0007    1.0000 </r>
       <r>    0.0007    1.0000 </r>
       <r>    3.1357    1.0000 </r>
       <r>    3.1357    1.0000 </r>
       <r>    3.1357    1.0000 </r>
       <r>    4.7059    1.0000 </r>
       <r>    4.7059    1.0000 </r>
       <r>    4.7060    1.0000 </r>
       <r>    8.5989    1.0000 </r>
       <r>   10.4816    1.0000 </r>
       <r>   10.4816    1.0000 </r>
       <r>   16.3963    0.0000 </r>
       <r>   16.3963    0.0000 </r>
       <r>   16.3963    0.0000 </r>
       <r>   18.0173    0.0000 </r>
       <r>   18.0173    0.0000 </r>
       <r>   18.5520    0.0000 </r>
       <r>   18.5520    0.0000 </r>
       <r>   18.5520    0.0000 </r>
       <r>   18.5806    0.0000 </r>
       <r>   26.9848    0.0000 </r>
       <r>   28.2320    0.0000 </r>
       <r>   28.2320    0.0000 </r>
      </set>
      <set comment="kpoint 17">
       <r>  -10.6921    1.0000 </r>
       <r>   -5.9284    1.0000 </r>
       <r>   -3.7340    1.0000 </r>
       <r>   -3.7340    1.0000 </r>
       <r>   -0.1214    1.0000 </r>
       <r>   -0.1214    1.0000 </r>
       <r>    1.8676    1.0000 </r>
       <r>    2.2799    1.0000 </r>
       <r>    2.2799    1.0000 </r>
       <r>    3.9801    1.0000 </r>
       <r>    4.6478    1.0000 </r>
       <r>    4.6479    1.0000 </r>
       <r>    5.1463    1.0000 </r>
       <r>    7.1606    1.0000 </r>
       <r>    9.3152    1.0000 </r>
       <r>   10.1791    1.0000 </r>
       <r>   16.4629    0.0000 </r>
       <r>   17.3172    0.0000 </r>
       <r>   17.3172    0.0000 </r>
       <r>   17.7636    0.0000 </r>
       <r>   19.4940    0.0000 </r>
       <r>   19.4988    0.0000 </r>
       <r>   19.6709    0.0000 </r>
       <r>   20.5590    0.0000 </r>
       <r>   20.5591    0.0000 </r>
       <r>   26.7555    0.0000 </r>
       <r>   26.8330    0.0000 </r>
       <r>   26.8404    0.0000 </r>
      </set>
      <set comment="kpoint 18">
       <r>   -9.9306    1.0000 </r>
[...]
        <r>  0.0000  0.0019  0.0078  0.0019  0.0000  0.0000  0.0000  0.0000  0.0000 </r>
        <r>  0.2050  0.0019  0.0000  0.0019  0.0000  0.0000  0.0000  0.0000  0.0000 </r>
        <r>  0.0513  0.0078  0.0019  0.0000  0.0000  0.0000  0.0000  0.0000  0.0000 </r>
        <r>  0.0513  0.0078  0.0019  0.0000  0.0000  0.0000  0.0000  0.0000  0.0000 </r>
        <r>  0.2050  0.0019  0.0000  0.0019  0.0000  0.0000  0.0000  0.0000  0.0000 </r>
        <r>  0.0512  0.0000  0.0019  0.0078  0.0000  0.0000  0.0000  0.0000  0.0000 </r>
       </set>
       <set comment="band 5">
        <r>  0.0000  0.0112  0.0448  0.0112  0.0000  0.0000  0.0000  0.0000  0.0000 </r>
        <r>  0.0130  0.0000  0.0112  0.0448  0.0000  0.0000  0.0000  0.0000  0.0000 </r>
        <r>  0.0000  0.0112  0.0448  0.0112  0.0000  0.0000  0.0000  0.0000  0.0000 </r>
        <r>  0.0519  0.0112  0.0000  0.0112  0.0000  0.0000  0.0000  0.0000  0.0000 </r>
        <r>  0.0130  0.0448  0.0112  0.0000  0.0000  0.0000  0.0000  0.0000  0.0000 </r>
        <r>  0.0130  0.0448  0.0112  0.0000  0.0000  0.0000  0.0000  0.0000  0.0000 </r>
        <r>  0.0519  0.0112  0.0000  0.0112  0.0000  0.0000  0.0000  0.0000  0.0000 </r>
        <r>  0.0130  0.0000  0.0112  0.0448  0.0000  0.0000  0.0000  0.0000  0.0000 </r>
       </set>
       <set comment="band 6">
        <r>  0.0000  0.0336  0.0000  0.0336  0.0000  0.0000  0.0000  0.0000  0.0000 </r>
        <r>  0.0389  0.0000  0.0336  0.0000  0.0000  0.0000  0.0000  0.0000  0.0000 </r>
        <r>  0.0000  0.0336  0.0000  0.0336  0.0000  0.0000  0.0000  0.0000  0.0000 </r>
        <r>  0.0000  0.0336  0.0000  0.0336  0.0000  0.0000  0.0000  0.0000  0.0000 </r>
        <r>  0.0389  0.0000  0.0336  0.0000  0.0000  0.0000  0.0000  0.0000  0.0000 </r>
        <r>  0.0389  0.0000  0.0336  0.0000  0.0000  0.0000  0.0000  0.0000  0.0000 </r>
        <r>  0.0000  0.0336  0.0000  0.0336  0.0000  0.0000  0.0000  0.0000  0.0000 </r>
        <r>  0.0389  0.0000  0.0336  0.0000  0.0000  0.0000  0.0000  0.0000  0.0000 </r>
       </set>
       <set comment="band 7">
        <r>  0.0048  0.0210  0.0210  0.0210  0.0000  0.0000  0.0000  0.0000  0.0000 </r>
        <r>  0.0019  0.0624  0.0016  0.0016  0.0000  0.0000  0.0000  0.0000  0.0000 </r>
        <r>  0.0722  0.0016  0.0016  0.0016  0.0000  0.0000  0.0000  0.0000  0.0000 </r>
        <r>  0.0019  0.0016  0.0624  0.0016  0.0000  0.0000  0.0000  0.0000  0.0000 </r>
        <r>  0.0019  0.0016  0.0016  0.0624  0.0000  0.0000  0.0000  0.0000  0.0000 </r>
        <r>  0.0243  0.0210  0.0210  0.0042  0.0000  0.0000  0.0000  0.0000  0.0000 </r>
        <r>  0.0243  0.0210  0.0042  0.0210  0.0000  0.0000  0.0000  0.0000  0.0000 </r>
        <r>  0.0243  0.0042  0.0210  0.0210  0.0000  0.0000  0.0000  0.0000  0.0000 </r>
       </set>
       <set comment="band 8">
        <r>  0.0730  0.0014  0.0014  0.0014  0.0000  0.0000  0.0000  0.0000  0.0000 </r>
        <r>  0.0241  0.0049  0.0208  0.0208  0.0000  0.0000  0.0000  0.0000  0.0000 </r>
        <r>  0.0056  0.0208  0.0208  0.0208  0.0000  0.0000  0.0000  0.0000  0.0000 </r>
        <r>  0.0241  0.0208  0.0049  0.0208  0.0000  0.0000  0.0000  0.0000  0.0000 </r>
        <r>  0.0241  0.0208  0.0208  0.0049  0.0000  0.0000  0.0000  0.0000  0.0000 </r>
        <r>  0.0016  0.0014  0.0014  0.0631  0.0000  0.0000  0.0000  0.0000  0.0000 </r>
        <r>  0.0016  0.0014  0.0631  0.0014  0.0000  0.0000  0.0000  0.0000  0.0000 </r>
        <r>  0.0016  0.0631  0.0014  0.0014  0.0000  0.0000  0.0000  0.0000  0.0000 </r>
       </set>
       <set comment="band 9">
        <r>  0.0000  0.0330  0.1673  0.0517  0.0000  0.0000  0.0000  0.0000  0.0000 </r>
        <r>  0.0000  0.0222  0.0283  0.0021  0.0000  0.0000  0.0000  0.0000  0.0000 </r>
        <r>  0.0000  0.0030  0.0152  0.0047  0.0000  0.0000  0.0000  0.0000  0.0000 </r>
        <r>  0.0000  0.0560  0.1127  0.0603  0.0000  0.0000  0.0000  0.0000  0.0000 </r>
        <r>  0.0000  0.0060  0.0364  0.0349  0.0000  0.0000  0.0000  0.0000  0.0000 </r>
        <r>  0.0000  0.0417  0.0090  0.0008  0.0000  0.0000  0.0000  0.0000  0.0000 </r>
        <r>  0.0000  0.0121  0.0025  0.0075  0.0000  0.0000  0.0000  0.0000  0.0000 </r>
        <r>  0.0000  0.0005  0.0138  0.0419  0.0000  0.0000  0.0000  0.0000  0.0000 </r>
       </set>
       <set comment="band 10">
        <r>  0.0000  0.1350  0.0007  0.1162  0.0000  0.0000  0.0000  0.0000  0.0000 </r>
        <r>  0.0000  0.0910  0.0347  0.0609  0.0000  0.0000  0.0000  0.0000  0.0000 </r>
        <r>  0.0000  0.0123  0.0001  0.0106  0.0000  0.0000  0.0000  0.0000  0.0000 </r>
        <r>  0.0000  0.0070  0.0005  0.0027  0.0000  0.0000  0.0000  0.0000  0.0000 </r>
        <r>  0.0000  0.0570  0.0266  0.0784  0.0000  0.0000  0.0000  0.0000  0.0000 </r>
        <r>  0.0000  0.0003  0.0330  0.0017  0.0000  0.0000  0.0000  0.0000  0.0000 </r>
        <r>  0.0000  0.0299  0.0000  0.0345  0.0000  0.0000  0.0000  0.0000  0.0000 </r>
        <r>  0.0000  0.0020  0.0282  0.0001  0.0000  0.0000  0.0000  0.0000  0.0000 </r>
       </set>
       <set comment="band 11">
        <r>  0.0000  0.0848  0.0848  0.0848  0.0000  0.0000  0.0000  0.0000  0.0000 </r>
        <r>  0.0000  0.0000  0.0212  0.0212  0.0000  0.0000  0.0000  0.0000  0.0000 </r>
        <r>  0.0000  0.0848  0.0848  0.0848  0.0000  0.0000  0.0000  0.0000  0.0000 </r>
        <r>  0.0000  0.0212  0.0000  0.0212  0.0000  0.0000  0.0000  0.0000  0.0000 </r>
        <r>  0.0000  0.0212  0.0212  0.0000  0.0000  0.0000  0.0000  0.0000  0.0000 </r>
        <r>  0.0000  0.0212  0.0212  0.0000  0.0000  0.0000  0.0000  0.0000  0.0000 </r>
        <r>  0.0000  0.0212  0.0000  0.0212  0.0000  0.0000  0.0000  0.0000  0.0000 </r>
        <r>  0.0000  0.0000  0.0212  0.0212  0.0000  0.0000  0.0000  0.0000  0.0000 </r>
       </set>
       <set comment="band 12">
        <r>  0.0000  0.0000  0.0000  0.0000  0.0000  0.0000  0.0000  0.0000  0.0000 </r>
        <r>  0.0000  0.0000  0.0636  0.0636  0.0000  0.0000  0.0000  0.0000  0.0000 </r>
        <r>  0.0000  0.0000  0.0000  0.0000  0.0000  0.0000  0.0000  0.0000  0.0000 </r>
        <r>  0.0000  0.0636  0.0000  0.0636  0.0000  0.0000  0.0000  0.0000  0.0000 </r>
        <r>  0.0000  0.0636  0.0636  0.0000  0.0000  0.0000  0.0000  0.0000  0.0000 </r>
        <r>  0.0000  0.0636  0.0636  0.0000  0.0000  0.0000  0.0000  0.0000  0.0000 </r>
        <r>  0.0000  0.0636  0.0000  0.0636  0.0000  0.0000  0.0000  0.0000  0.0000 </r>
        <r>  0.0000  0.0000  0.0636  0.0636  0.0000  0.0000  0.0000  0.0000  0.0000 </r>
       </set>
       <set comment="band 13">
        <r>  0.0000  0.0002  0.0000  0.0001  0.0000  0.0000  0.0000  0.0000  0.0000 </r>
        <r>  0.0000  0.0300  0.0119  0.0015  0.0000  0.0000  0.0000  0.0000  0.0000 </r>
        <r>  0.0000  0.1422  0.0150  0.0649  0.0000  0.0000  0.0000  0.0000  0.0000 </r>
        <r>  0.0000  0.0212  0.0032  0.0374  0.0000  0.0000  0.0000  0.0000  0.0000 </r>
        <r>  0.0000  0.0071  0.0337  0.0137  0.0000  0.0000  0.0000  0.0000  0.0000 </r>
        <r>  0.0000  0.0935  0.0033  0.0214  0.0000  0.0000  0.0000  0.0000  0.0000 </r>
        <r>  0.0000  0.0598  0.0050  0.0049  0.0000  0.0000  0.0000  0.0000  0.0000 </r>
        <r>  0.0000  0.0470  0.0556  0.0910  0.0000  0.0000  0.0000  0.0000  0.0000 </r>
       </set>
       <set comment="band 14">
        <r>  0.0000  0.0000  0.0002  0.0001  0.0000  0.0000  0.0000  0.0000  0.0000 </r>
        <r>  0.0000  0.0012  0.0257  0.0361  0.0000  0.0000  0.0000  0.0000  0.0000 </r>
        <r>  0.0000  0.0059  0.1330  0.0832  0.0000  0.0000  0.0000  0.0000  0.0000 </r>
        <r>  0.0000  0.0164  0.0281  0.0002  0.0000  0.0000  0.0000  0.0000  0.0000 </r>
        <r>  0.0000  0.0305  0.0039  0.0176  0.0000  0.0000  0.0000  0.0000  0.0000 </r>
        <r>  0.0000  0.0092  0.0994  0.0275  0.0000  0.0000  0.0000  0.0000  0.0000 </r>
        <r>  0.0000  0.0429  0.0440  0.0978  0.0000  0.0000  0.0000  0.0000  0.0000 </r>
        <r>  0.0000  0.0019  0.0471  0.0117  0.0000  0.0000  0.0000  0.0000  0.0000 </r>
       </set>
       <set comment="band 15">
        <r>  0.0000  0.0012  0.0000  0.0011  0.0000  0.0000  0.0000  0.0000  0.0000 </r>
        <r>  0.0000  0.0827  0.0092  0.0674  0.0000  0.0000  0.0000  0.0000  0.0000 </r>
        <r>  0.0000  0.0048  0.0000  0.0048  0.0000  0.0000  0.0000  0.0000  0.0000 </r>
        <r>  0.0000  0.0272  0.0000  0.0269  0.0000  0.0000  0.0000  0.0000  0.0000 </r>
        <r>  0.0000  0.0675  0.0090  0.0823  0.0000  0.0000  0.0000  0.0000  0.0000 </r>
        <r>  0.0000  0.0246  0.0090  0.1520  0.0000  0.0000  0.0000  0.0000  0.0000 </r>
        <r>  0.0000  0.0038  0.0000  0.0037  0.0000  0.0000  0.0000  0.0000  0.0000 </r>
        <r>  0.0000  0.1526  0.0091  0.0246  0.0000  0.0000  0.0000  0.0000  0.0000 </r>
       </set>
       <set comment="band 16">
        <r>  0.0000  0.0004  0.0015  0.0004  0.0000  0.0000  0.0000  0.0000  0.0000 </r>
        <r>  0.0000  0.0273  0.0599  0.0016  0.0000  0.0000  0.0000  0.0000  0.0000 </r>
        <r>  0.0000  0.0016  0.0064  0.0016  0.0000  0.0000  0.0000  0.0000  0.0000 </r>
        <r>  0.0000  0.0419  0.1100  0.0422  0.0000  0.0000  0.0000  0.0000  0.0000 </r>
        <r>  0.0000  0.0016  0.0601  0.0277  0.0000  0.0000  0.0000  0.0000  0.0000 </r>
        <r>  0.0000  0.0004  0.0159  0.0511  0.0000  0.0000  0.0000  0.0000  0.0000 </r>
        <r>  0.0000  0.0211  0.2031  0.0212  0.0000  0.0000  0.0000  0.0000  0.0000 </r>
        <r>  0.0000  0.0504  0.0158  0.0004  0.0000  0.0000  0.0000  0.0000  0.0000 </r>
       </set>
       <set comment="band 17">
        <r>  0.0000  0.0051  0.0120  0.0015  0.0000  0.0000  0.0000  0.0000  0.0000 </r>
        <r>  0.0000  0.0124  0.0644  0.0000  0.0000  0.0000  0.0000  0.0000  0.0000 </r>
        <r>  0.0000  0.0032  0.0077  0.0009  0.0000  0.0000  0.0000  0.0000  0.0000 </r>
        <r>  0.0000  0.0498  0.0292  0.0278  0.0000  0.0000  0.0000  0.0000  0.0000 </r>
        <r>  0.0000  0.0076  0.0500  0.0036  0.0000  0.0000  0.0000  0.0000  0.0000 </r>
        <r>  0.0000  0.0017  0.0007  0.0166  0.0000  0.0000  0.0000  0.0000  0.0000 </r>
        <r>  0.0000  0.0090  0.1353  0.0095  0.0000  0.0000  0.0000  0.0000  0.0000 </r>
        <r>  0.0000  0.0572  0.0032  0.0047  0.0000  0.0000  0.0000  0.0000  0.0000 </r>
       </set>
       <set comment="band 18">
        <r>  0.0000  0.0073  0.0004  0.0109  0.0000  0.0000  0.0000  0.0000  0.0000 </r>
        <r>  0.0000  0.0178  0.0021  0.0665  0.0000  0.0000  0.0000  0.0000  0.0000 </r>
        <r>  0.0000  0.0047  0.0002  0.0069  0.0000  0.0000  0.0000  0.0000  0.0000 </r>
        <r>  0.0000  0.0167  0.0009  0.0387  0.0000  0.0000  0.0000  0.0000  0.0000 </r>
        <r>  0.0000  0.0589  0.0166  0.0265  0.0000  0.0000  0.0000  0.0000  0.0000 </r>
        <r>  0.0000  0.0080  0.0089  0.1228  0.0000  0.0000  0.0000  0.0000  0.0000 </r>
        <r>  0.0000  0.0006  0.0041  0.0001  0.0000  0.0000  0.0000  0.0000  0.0000 </r>
        <r>  0.0000  0.0822  0.0064  0.0049  0.0000  0.0000  0.0000  0.0000  0.0000 </r>
       </set>
       <set comment="band 19">
        <r>  0.0000  0.0570  0.0570  0.0570  0.0000  0.0000  0.0000  0.0000  0.0000 </r>
        <r>  0.0000  0.0000  0.0143  0.0143  0.0000  0.0000  0.0000  0.0000  0.0000 </r>
        <r>  0.0000  0.0570  0.0570  0.0570  0.0000  0.0000  0.0000  0.0000  0.0000 </r>
        <r>  0.0000  0.0143  0.0000  0.0143  0.0000  0.0000  0.0000  0.0000  0.0000 </r>
        <r>  0.0000  0.0143  0.0143  0.0000  0.0000  0.0000  0.0000  0.0000  0.0000 </r>
        <r>  0.0000  0.0143  0.0143  0.0000  0.0000  0.0000  0.0000  0.0000  0.0000 </r>
        <r>  0.0000  0.0143  0.0000  0.0143  0.0000  0.0000  0.0000  0.0000  0.0000 </r>
        <r>  0.0000  0.0000  0.0143  0.0143  0.0000  0.0000  0.0000  0.0000  0.0000 </r>
       </set>
       <set comment="band 20">
        <r>  0.0000  0.0168  0.0000  0.0171  0.0000  0.0000  0.0000  0.0000  0.0000 </r>
        <r>  0.0000  0.0738  0.0043  0.0028  0.0000  0.0000  0.0000  0.0000  0.0000 </r>
        <r>  0.0000  0.0329  0.0000  0.0335  0.0000  0.0000  0.0000  0.0000  0.0000 </r>
        <r>  0.0000  0.0138  0.0000  0.0137  0.0000  0.0000  0.0000  0.0000  0.0000 </r>
        <r>  0.0000  0.0027  0.0041  0.0750  0.0000  0.0000  0.0000  0.0000  0.0000 </r>
        <r>  0.0000  0.0673  0.0045  0.0016  0.0000  0.0000  0.0000  0.0000  0.0000 </r>
        <r>  0.0000  0.0375  0.0000  0.0386  0.0000  0.0000  0.0000  0.0000  0.0000 </r>
        <r>  0.0000  0.0015  0.0040  0.0678  0.0000  0.0000  0.0000  0.0000  0.0000 </r>
       </set>
       <set comment="band 21">
        <r>  0.0000  0.0058  0.0226  0.0055  0.0000  0.0000  0.0000  0.0000  0.0000 </r>
        <r>  0.0000  0.0254  0.0095  0.0110  0.0000  0.0000  0.0000  0.0000  0.0000 </r>
        <r>  0.0000  0.0113  0.0442  0.0108  0.0000  0.0000  0.0000  0.0000  0.0000 </r>
        <r>  0.0000  0.0000  0.0992  0.0001  0.0000  0.0000  0.0000  0.0000  0.0000 </r>
        <r>  0.0000  0.0111  0.0097  0.0242  0.0000  0.0000  0.0000  0.0000  0.0000 </r>
        <r>  0.0000  0.0059  0.0687  0.0005  0.0000  0.0000  0.0000  0.0000  0.0000 </r>
        <r>  0.0000  0.0357  0.0021  0.0346  0.0000  0.0000  0.0000  0.0000  0.0000 </r>
        <r>  0.0000  0.0005  0.0692  0.0054  0.0000  0.0000  0.0000  0.0000  0.0000 </r>
       </set>
       <set comment="band 22">
        <r>  0.0000  0.0306  0.0118  0.0763  0.0000  0.0000  0.0000  0.0000  0.0000 </r>
        <r>  0.0000  0.0161  0.0202  0.0066  0.0000  0.0000  0.0000  0.0000  0.0000 </r>
        <r>  0.0000  0.0239  0.0093  0.0597  0.0000  0.0000  0.0000  0.0000  0.0000 </r>
        <r>  0.0000  0.0110  0.0062  0.0014  0.0000  0.0000  0.0000  0.0000  0.0000 </r>
        <r>  0.0000  0.0290  0.0330  0.0402  0.0000  0.0000  0.0000  0.0000  0.0000 </r>
        <r>  0.0000  0.0227  0.0288  0.0285  0.0000  0.0000  0.0000  0.0000  0.0000 </r>
        <r>  0.0000  0.0154  0.0044  0.0005  0.0000  0.0000  0.0000  0.0000  0.0000 </r>
        <r>  0.0000  0.0114  0.0236  0.0027  0.0000  0.0000  0.0000  0.0000  0.0000 </r>
       </set>
       <set comment="band 23">
        <r>  0.0000  0.0485  0.0673  0.0028  0.0000  0.0000  0.0000  0.0000  0.0000 </r>
        <r>  0.0000  0.0256  0.0135  0.0271  0.0000  0.0000  0.0000  0.0000  0.0000 </r>
        <r>  0.0000  0.0380  0.0527  0.0022  0.0000  0.0000  0.0000  0.0000  0.0000 </r>
        <r>  0.0000  0.0227  0.0355  0.0323  0.0000  0.0000  0.0000  0.0000  0.0000 </r>
        <r>  0.0000  0.0047  0.0007  0.0015  0.0000  0.0000  0.0000  0.0000  0.0000 </r>
        <r>  0.0000  0.0085  0.0024  0.0011  0.0000  0.0000  0.0000  0.0000  0.0000 </r>
        <r>  0.0000  0.0158  0.0251  0.0307  0.0000  0.0000  0.0000  0.0000  0.0000 </r>
        <r>  0.0000  0.0181  0.0076  0.0286  0.0000  0.0000  0.0000  0.0000  0.0000 </r>
       </set>
       <set comment="band 24">
        <r>  0.0000  0.0000  0.0000  0.0000  0.0000  0.0000  0.0000  0.0000  0.0000 </r>
        <r>  0.0000  0.0000  0.0428  0.0428  0.0000  0.0000  0.0000  0.0000  0.0000 </r>
        <r>  0.0000  0.0000  0.0000  0.0000  0.0000  0.0000  0.0000  0.0000  0.0000 </r>
        <r>  0.0000  0.0428  0.0000  0.0428  0.0000  0.0000  0.0000  0.0000  0.0000 </r>
        <r>  0.0000  0.0428  0.0428  0.0000  0.0000  0.0000  0.0000  0.0000  0.0000 </r>
        <r>  0.0000  0.0428  0.0428  0.0000  0.0000  0.0000  0.0000  0.0000  0.0000 </r>
        <r>  0.0000  0.0428  0.0000  0.0428  0.0000  0.0000  0.0000  0.0000  0.0000 </r>
        <r>  0.0000  0.0000  0.0428  0.0428  0.0000  0.0000  0.0000  0.0000  0.0000 </r>
       </set>
       <set comment="band 25">
        <r>  0.2944  0.0000  0.0000  0.0000  0.0000  0.0000  0.0000  0.0000  0.0000 </r>
        <r>  0.0775  0.0008  0.0010  0.0010  0.0000  0.0000  0.0000  0.0000  0.0000 </r>
        <r>  0.0626  0.0010  0.0010  0.0010  0.0000  0.0000  0.0000  0.0000  0.0000 </r>
        <r>  0.0775  0.0010  0.0008  0.0010  0.0000  0.0000  0.0000  0.0000  0.0000 </r>
        <r>  0.0775  0.0010  0.0010  0.0008  0.0000  0.0000  0.0000  0.0000  0.0000 </r>
        <r>  0.0002  0.0000  0.0000  0.0036  0.0000  0.0000  0.0000  0.0000  0.0000 </r>
        <r>  0.0002  0.0000  0.0036  0.0000  0.0000  0.0000  0.0000  0.0000  0.0000 </r>
        <r>  0.0002  0.0036  0.0000  0.0000  0.0000  0.0000  0.0000  0.0000  0.0000 </r>
       </set>
       <set comment="band 26">
        <r>  0.0006  0.0012  0.0012  0.0012  0.0000  0.0000  0.0000  0.0000  0.0000 </r>
        <r>  0.0209  0.0029  0.0003  0.0003  0.0000  0.0000  0.0000  0.0000  0.0000 </r>
        <r>  0.2324  0.0003  0.0003  0.0003  0.0000  0.0000  0.0000  0.0000  0.0000 </r>
        <r>  0.0209  0.0003  0.0029  0.0003  0.0000  0.0000  0.0000  0.0000  0.0000 </r>
        <r>  0.0209  0.0003  0.0003  0.0029  0.0000  0.0000  0.0000  0.0000  0.0000 </r>
        <r>  0.0981  0.0012  0.0012  0.0000  0.0000  0.0000  0.0000  0.0000  0.0000 </r>
        <r>  0.0981  0.0012  0.0000  0.0012  0.0000  0.0000  0.0000  0.0000  0.0000 </r>
        <r>  0.0981  0.0000  0.0012  0.0012  0.0000  0.0000  0.0000  0.0000  0.0000 </r>
       </set>
       <set comment="band 27">
        <r>  0.0000  0.0005  0.0024  0.0007  0.0000  0.0000  0.0000  0.0000  0.0000 </r>
        <r>  0.0430  0.0000  0.0007  0.0024  0.0000  0.0000  0.0000  0.0000  0.0000 </r>
        <r>  0.0000  0.0005  0.0024  0.0007  0.0000  0.0000  0.0000  0.0000  0.0000 </r>
        <r>  0.1963  0.0007  0.0000  0.0005  0.0000  0.0000  0.0000  0.0000  0.0000 </r>
        <r>  0.0557  0.0024  0.0005  0.0000  0.0000  0.0000  0.0000  0.0000  0.0000 </r>
        <r>  0.0557  0.0024  0.0005  0.0000  0.0000  0.0000  0.0000  0.0000  0.0000 </r>
        <r>  0.1963  0.0007  0.0000  0.0005  0.0000  0.0000  0.0000  0.0000  0.0000 </r>
        <r>  0.0430  0.0000  0.0007  0.0024  0.0000  0.0000  0.0000  0.0000  0.0000 </r>
       </set>
       <set comment="band 28">
        <r>  0.0000  0.0019  0.0000  0.0017  0.0000  0.0000  0.0000  0.0000  0.0000 </r>
        <r>  0.1537  0.0000  0.0017  0.0000  0.0000  0.0000  0.0000  0.0000  0.0000 </r>
        <r>  0.0000  0.0019  0.0000  0.0017  0.0000  0.0000  0.0000  0.0000  0.0000 </r>
        <r>  0.0004  0.0017  0.0000  0.0019  0.0000  0.0000  0.0000  0.0000  0.0000 </r>
        <r>  0.1409  0.0000  0.0019  0.0000  0.0000  0.0000  0.0000  0.0000  0.0000 </r>
        <r>  0.1409  0.0000  0.0019  0.0000  0.0000  0.0000  0.0000  0.0000  0.0000 </r>
        <r>  0.0004  0.0017  0.0000  0.0019  0.0000  0.0000  0.0000  0.0000  0.0000 </r>
        <r>  0.1537  0.0000  0.0017  0.0000  0.0000  0.0000  0.0000  0.0000  0.0000 </r>
       </set>
      </set>
     </set>
    </set>
   </array>
  </projected>
 </calculation>
 <structure name="finalpos" >
  <crystal>
   <varray name="basis" >
    <v>       3.45471684       0.00000000      -0.00000000 </v>
    <v>      -0.00000000       3.45471684       0.00000000 </v>
    <v>       0.00000000      -0.00000000       3.45471684 </v>
   </varray>
   <i name="volume">     41.23228184 </i>
   <varray name="rec_basis" >
    <v>       0.28945932       0.00000000      -0.00000000 </v>
    <v>      -0.00000000       0.28945932       0.00000000 </v>
    <v>       0.00000000      -0.00000000       0.28945932 </v>
   </varray>
  </crystal>
  <varray name="positions" >
   <v>       0.75669600       0.75669600       0.75669600 </v>
   <v>       0.00669500       0.50669600       0.00669500 </v>
   <v>       0.50669600       0.50669600       0.50669600 </v>
   <v>       0.00669500       0.00669500       0.50669600 </v>
   <v>       0.50669600       0.00669500       0.00669500 </v>
   <v>       0.75669600       0.25669600       0.25669600 </v>
   <v>       0.25669600       0.25669600       0.75669600 </v>
   <v>       0.25669600       0.75669600       0.25669600 </v>
  </varray>
 </structure>
</modeling>
