unknown system                          
            1
     3.511887   -0.000000   -0.000000
     0.000000    3.511887   -0.000000
     0.000000    0.000000    3.511887
   C 
   8
Direct configuration=     1
   0.75669600  0.75669600  0.75669600
   0.00669500  0.50669600  0.00669500
   0.50669600  0.50669600  0.50669600
   0.00669500  0.00669500  0.50669600
   0.50669600  0.00669500  0.00669500
   0.75669600  0.25669600  0.25669600
   0.25669600  0.25669600  0.75669600
   0.25669600  0.75669600  0.25669600
unknown system                          
            1
     3.506862    0.000000   -0.000000
    -0.000000    3.506862    0.000000
     0.000000   -0.000000    3.506862
   C 
   8
Direct configuration=     2
   0.75669600  0.75669600  0.75669600
   0.00669500  0.50669600  0.00669500
   0.50669600  0.50669600  0.50669600
   0.00669500  0.00669500  0.50669600
   0.50669600  0.00669500  0.00669500
   0.75669600  0.25669600  0.25669600
   0.25669600  0.25669600  0.75669600
   0.25669600  0.75669600  0.25669600
unknown system                          
            1
     3.491789    0.000000   -0.000000
    -0.000000    3.491789    0.000000
     0.000000   -0.000000    3.491789
   C 
   8
Direct configuration=     3
   0.75669600  0.75669600  0.75669600
   0.00669500  0.50669600  0.00669500
   0.50669600  0.50669600  0.50669600
   0.00669500  0.00669500  0.50669600
   0.50669600  0.00669500  0.00669500
   0.75669600  0.25669600  0.25669600
   0.25669600  0.25669600  0.75669600
   0.25669600  0.75669600  0.25669600
unknown system                          
            1
     3.461641    0.000000   -0.000000
    -0.000000    3.461641    0.000000
     0.000000   -0.000000    3.461641
   C 
   8
Direct configuration=     4
   0.75669600  0.75669600  0.75669600
   0.00669500  0.50669600  0.00669500
   0.50669600  0.50669600  0.50669600
   0.00669500  0.00669500  0.50669600
   0.50669600  0.00669500  0.00669500
   0.75669600  0.25669600  0.25669600
   0.25669600  0.25669600  0.75669600
   0.25669600  0.75669600  0.25669600
unknown system                          
            1
     3.454717    0.000000   -0.000000
    -0.000000    3.454717    0.000000
     0.000000   -0.000000    3.454717
   C 
   8
Direct configuration=     5
   0.75669600  0.75669600  0.75669600
   0.00669500  0.50669600  0.00669500
   0.50669600  0.50669600  0.50669600
   0.00669500  0.00669500  0.50669600
   0.50669600  0.00669500  0.00669500
   0.75669600  0.25669600  0.25669600
   0.25669600  0.25669600  0.75669600
   0.25669600  0.75669600  0.25669600
