   4   4   1   0
  0.1028436E+02  0.2467291E-09  0.2467292E-09  0.7803073E-09  0.1500000E-16
   1.0000000000000000E-004
  CAR 
 unknown system                          
     31.77595069    -14.75841836  301      8.87255715      1.00000000
    -14.758  0.0000E+00  0.0000E+00  0.0000E+00  0.0000E+00
    -14.603  0.0000E+00  0.0000E+00  0.0000E+00  0.0000E+00
    -14.448  0.0000E+00  0.0000E+00  0.0000E+00  0.0000E+00
    -14.293  0.0000E+00  0.0000E+00  0.0000E+00  0.0000E+00
    -14.138  0.0000E+00  0.0000E+00  0.0000E+00  0.0000E+00
    -13.983  0.0000E+00  0.0000E+00  0.0000E+00  0.0000E+00
    -13.828  0.0000E+00  0.0000E+00  0.0000E+00  0.0000E+00
    -13.673  0.0000E+00  0.0000E+00  0.0000E+00  0.0000E+00
    -13.518  0.0000E+00  0.0000E+00  0.0000E+00  0.0000E+00
    -13.362  0.0000E+00  0.0000E+00  0.0000E+00  0.0000E+00
    -13.207  0.0000E+00  0.0000E+00  0.0000E+00  0.0000E+00
    -13.052  0.0000E+00  0.0000E+00  0.0000E+00  0.0000E+00
    -12.897  0.0000E+00  0.0000E+00  0.0000E+00  0.0000E+00
    -12.742  0.0000E+00  0.0000E+00  0.0000E+00  0.0000E+00
    -12.587  0.8667E-04  0.8667E-04  0.1629E-05  0.1630E-05
    -12.432  0.5102E-03  0.5102E-03  0.4904E-04  0.4904E-04
    -12.277  0.7734E-03  0.7734E-03  0.1547E-03  0.1547E-03
    -12.121  0.9243E-03  0.9243E-03  0.2867E-03  0.2867E-03
    -11.966  0.1090E-02  0.1090E-02  0.4433E-03  0.4433E-03
    -11.811  0.1228E-02  0.1228E-02  0.6232E-03  0.6232E-03
    -11.656  0.1398E-02  0.1398E-02  0.8266E-03  0.8266E-03
    -11.501  0.1518E-02  0.1518E-02  0.1053E-02  0.1053E-02
    -11.346  0.1627E-02  0.1627E-02  0.1297E-02  0.1297E-02
    -11.191  0.1757E-02  0.1757E-02  0.1559E-02  0.1559E-02
    -11.036  0.1889E-02  0.1889E-02  0.1842E-02  0.1842E-02
    -10.881  0.2004E-02  0.2004E-02  0.2144E-02  0.2144E-02
    -10.725  0.2130E-02  0.2130E-02  0.2464E-02  0.2464E-02
    -10.570  0.2366E-02  0.2366E-02  0.2813E-02  0.2813E-02
    -10.415  0.2610E-02  0.2610E-02  0.3199E-02  0.3199E-02
    -10.260  0.2840E-02  0.2840E-02  0.3622E-02  0.3622E-02
    -10.105  0.2885E-02  0.2885E-02  0.4068E-02  0.4068E-02
     -9.950  0.2886E-02  0.2886E-02  0.4515E-02  0.4515E-02
     -9.795  0.2901E-02  0.2901E-02  0.4965E-02  0.4965E-02
     -9.640  0.2908E-02  0.2908E-02  0.5415E-02  0.5415E-02
     -9.485  0.2911E-02  0.2911E-02  0.5866E-02  0.5866E-02
     -9.329  0.2909E-02  0.2909E-02  0.6318E-02  0.6318E-02
     -9.174  0.2922E-02  0.2922E-02  0.6770E-02  0.6770E-02
     -9.019  0.2929E-02  0.2929E-02  0.7224E-02  0.7224E-02
     -8.864  0.2932E-02  0.2932E-02  0.7679E-02  0.7679E-02
     -8.709  0.2946E-02  0.2946E-02  0.8134E-02  0.8134E-02
     -8.554  0.2955E-02  0.2955E-02  0.8592E-02  0.8592E-02
     -8.399  0.2959E-02  0.2959E-02  0.9051E-02  0.9051E-02
     -8.244  0.2961E-02  0.2961E-02  0.9510E-02  0.9510E-02
     -8.088  0.2972E-02  0.2972E-02  0.9970E-02  0.9970E-02
     -7.933  0.2989E-02  0.2989E-02  0.1043E-01  0.1043E-01
     -7.778  0.3005E-02  0.3005E-02  0.1090E-01  0.1090E-01
     -7.623  0.3013E-02  0.3013E-02  0.1136E-01  0.1136E-01
     -7.468  0.3021E-02  0.3021E-02  0.1183E-01  0.1183E-01
     -7.313  0.3043E-02  0.3043E-02  0.1230E-01  0.1230E-01
     -7.158  0.3076E-02  0.3076E-02  0.1278E-01  0.1278E-01
     -7.003  0.3122E-02  0.3122E-02  0.1326E-01  0.1326E-01
     -6.848  0.3250E-02  0.3250E-02  0.1375E-01  0.1375E-01
     -6.692  0.3441E-02  0.3441E-02  0.1427E-01  0.1427E-01
     -6.537  0.3354E-02  0.3354E-02  0.1480E-01  0.1480E-01
     -6.382  0.3434E-02  0.3434E-02  0.1532E-01  0.1532E-01
     -6.227  0.3347E-02  0.3347E-02  0.1585E-01  0.1585E-01
     -6.072  0.3172E-02  0.3172E-02  0.1635E-01  0.1635E-01
     -5.917  0.3346E-02  0.3346E-02  0.1685E-01  0.1685E-01
     -5.762  0.3607E-02  0.3607E-02  0.1738E-01  0.1738E-01
     -5.607  0.4148E-02  0.4148E-02  0.1799E-01  0.1799E-01
     -5.452  0.2257E-02  0.2256E-02  0.1846E-01  0.1846E-01
     -5.296  0.1866E-02  0.1866E-02  0.1878E-01  0.1878E-01
     -5.141  0.2635E-02  0.2630E-02  0.1908E-01  0.1908E-01
     -4.986  0.1555E-02  0.1555E-02  0.1938E-01  0.1938E-01
     -4.831  0.2288E-02  0.2288E-02  0.1969E-01  0.1969E-01
     -4.676  0.2594E-02  0.2594E-02  0.2007E-01  0.2007E-01
     -4.521  0.3085E-02  0.3085E-02  0.2050E-01  0.2050E-01
     -4.366  0.3319E-02  0.3319E-02  0.2100E-01  0.2100E-01
     -4.211  0.2795E-02  0.2795E-02  0.2146E-01  0.2146E-01
     -4.056  0.2930E-02  0.2930E-02  0.2189E-01  0.2189E-01
     -3.900  0.4552E-02  0.4552E-02  0.2245E-01  0.2245E-01
     -3.745  0.3836E-02  0.3836E-02  0.2315E-01  0.2315E-01
     -3.590  0.3575E-02  0.3575E-02  0.2371E-01  0.2371E-01
     -3.435  0.3527E-02  0.3527E-02  0.2426E-01  0.2426E-01
     -3.280  0.3460E-02  0.3460E-02  0.2480E-01  0.2480E-01
     -3.125  0.3602E-02  0.3602E-02  0.2535E-01  0.2535E-01
     -2.970  0.3044E-02  0.3044E-02  0.2586E-01  0.2586E-01
     -2.815  0.2981E-02  0.2981E-02  0.2633E-01  0.2633E-01
     -2.659  0.2902E-02  0.2902E-02  0.2678E-01  0.2678E-01
     -2.504  0.2718E-02  0.2718E-02  0.2722E-01  0.2722E-01
     -2.349  0.2772E-02  0.2772E-02  0.2764E-01  0.2764E-01
     -2.194  0.3163E-02  0.3163E-02  0.2810E-01  0.2810E-01
     -2.039  0.3823E-02  0.3823E-02  0.2868E-01  0.2868E-01
     -1.884  0.3553E-02  0.3553E-02  0.2922E-01  0.2922E-01
     -1.729  0.3700E-02  0.3700E-02  0.2979E-01  0.2979E-01
     -1.574  0.3853E-02  0.3853E-02  0.3037E-01  0.3037E-01
     -1.419  0.4012E-02  0.4012E-02  0.3098E-01  0.3098E-01
     -1.263  0.4164E-02  0.4164E-02  0.3162E-01  0.3162E-01
     -1.108  0.4244E-02  0.4244E-02  0.3227E-01  0.3227E-01
     -0.953  0.4281E-02  0.4281E-02  0.3293E-01  0.3293E-01
     -0.798  0.4305E-02  0.4305E-02  0.3360E-01  0.3360E-01
     -0.643  0.4415E-02  0.4415E-02  0.3427E-01  0.3427E-01
     -0.488  0.4596E-02  0.4596E-02  0.3497E-01  0.3497E-01
     -0.333  0.4765E-02  0.4765E-02  0.3570E-01  0.3570E-01
     -0.178  0.4911E-02  0.4911E-02  0.3645E-01  0.3645E-01
     -0.023  0.5010E-02  0.5010E-02  0.3722E-01  0.3722E-01
      0.133  0.5124E-02  0.5124E-02  0.3800E-01  0.3800E-01
      0.288  0.5095E-02  0.5095E-02  0.3880E-01  0.3880E-01
      0.443  0.4997E-02  0.4997E-02  0.3958E-01  0.3958E-01
      0.598  0.4895E-02  0.4895E-02  0.4035E-01  0.4035E-01
      0.753  0.4866E-02  0.4866E-02  0.4110E-01  0.4110E-01
      0.908  0.4903E-02  0.4903E-02  0.4186E-01  0.4186E-01
      1.063  0.5131E-02  0.5131E-02  0.4263E-01  0.4263E-01
      1.218  0.6817E-02  0.6817E-02  0.4354E-01  0.4354E-01
      1.373  0.6390E-02  0.6390E-02  0.4457E-01  0.4457E-01
      1.529  0.6346E-02  0.6346E-02  0.4556E-01  0.4556E-01
      1.684  0.6297E-02  0.6297E-02  0.4654E-01  0.4654E-01
      1.839  0.6820E-02  0.6820E-02  0.4754E-01  0.4754E-01
      1.994  0.8058E-02  0.8058E-02  0.4869E-01  0.4869E-01
      2.149  0.8006E-02  0.8006E-02  0.4995E-01  0.4995E-01
      2.304  0.7770E-02  0.7770E-02  0.5117E-01  0.5117E-01
      2.459  0.8115E-02  0.8115E-02  0.5239E-01  0.5239E-01
      2.614  0.8092E-02  0.8092E-02  0.5367E-01  0.5367E-01
      2.770  0.6513E-02  0.6513E-02  0.5481E-01  0.5481E-01
      2.925  0.6269E-02  0.6269E-02  0.5577E-01  0.5577E-01
      3.080  0.6176E-02  0.6176E-02  0.5675E-01  0.5675E-01
      3.235  0.5606E-02  0.5606E-02  0.5766E-01  0.5766E-01
      3.390  0.5506E-02  0.5506E-02  0.5851E-01  0.5851E-01
      3.545  0.5702E-02  0.5702E-02  0.5938E-01  0.5938E-01
      3.700  0.5792E-02  0.5792E-02  0.6028E-01  0.6028E-01
      3.855  0.5309E-02  0.5309E-02  0.6114E-01  0.6114E-01
      4.010  0.5634E-02  0.5634E-02  0.6197E-01  0.6197E-01
      4.166  0.5578E-02  0.5578E-02  0.6283E-01  0.6283E-01
      4.321  0.5554E-02  0.5554E-02  0.6369E-01  0.6369E-01
      4.476  0.5721E-02  0.5721E-02  0.6456E-01  0.6456E-01
      4.631  0.5587E-02  0.5587E-02  0.6545E-01  0.6545E-01
      4.786  0.5426E-02  0.5426E-02  0.6630E-01  0.6630E-01
      4.941  0.5434E-02  0.5434E-02  0.6714E-01  0.6714E-01
      5.096  0.5086E-02  0.5086E-02  0.6796E-01  0.6796E-01
      5.251  0.5061E-02  0.5061E-02  0.6874E-01  0.6874E-01
      5.406  0.4992E-02  0.4992E-02  0.6952E-01  0.6952E-01
      5.562  0.5031E-02  0.5031E-02  0.7029E-01  0.7029E-01
      5.717  0.5674E-02  0.5674E-02  0.7110E-01  0.7110E-01
      5.872  0.4761E-02  0.4761E-02  0.7192E-01  0.7192E-01
      6.027  0.3902E-02  0.3902E-02  0.7259E-01  0.7259E-01
      6.182  0.2942E-02  0.2942E-02  0.7314E-01  0.7314E-01
      6.337  0.2620E-02  0.2620E-02  0.7355E-01  0.7355E-01
      6.492  0.2730E-02  0.2730E-02  0.7396E-01  0.7396E-01
      6.647  0.3260E-02  0.3260E-02  0.7442E-01  0.7442E-01
      6.803  0.3624E-02  0.3624E-02  0.7496E-01  0.7496E-01
      6.958  0.3794E-02  0.3794E-02  0.7553E-01  0.7553E-01
      7.113  0.3628E-02  0.3628E-02  0.7610E-01  0.7610E-01
      7.268  0.3819E-02  0.3819E-02  0.7669E-01  0.7669E-01
      7.423  0.3822E-02  0.3822E-02  0.7728E-01  0.7728E-01
      7.578  0.3206E-02  0.3206E-02  0.7782E-01  0.7782E-01
      7.733  0.2686E-02  0.2686E-02  0.7828E-01  0.7828E-01
      7.888  0.2214E-02  0.2214E-02  0.7866E-01  0.7866E-01
      8.043  0.1960E-02  0.1960E-02  0.7897E-01  0.7897E-01
      8.199  0.1778E-02  0.1778E-02  0.7927E-01  0.7927E-01
      8.354  0.1622E-02  0.1622E-02  0.7953E-01  0.7953E-01
      8.509  0.1311E-02  0.1311E-02  0.7977E-01  0.7977E-01
      8.664  0.6487E-03  0.6487E-03  0.7991E-01  0.7991E-01
      8.819  0.3201E-03  0.3201E-03  0.7999E-01  0.7999E-01
      8.974  0.1686E-03  0.1686E-03  0.8002E-01  0.8002E-01
      9.129  0.2133E-03  0.2133E-03  0.8005E-01  0.8005E-01
      9.284  0.3117E-03  0.3117E-03  0.8009E-01  0.8009E-01
      9.439  0.5399E-03  0.5399E-03  0.8017E-01  0.8017E-01
      9.595  0.5734E-03  0.5734E-03  0.8025E-01  0.8025E-01
      9.750  0.6488E-03  0.6488E-03  0.8035E-01  0.8035E-01
      9.905  0.7298E-03  0.7298E-03  0.8045E-01  0.8045E-01
     10.060  0.8077E-03  0.8077E-03  0.8057E-01  0.8057E-01
     10.215  0.9133E-03  0.9133E-03  0.8071E-01  0.8071E-01
     10.370  0.1114E-02  0.1114E-02  0.8086E-01  0.8086E-01
     10.525  0.1442E-02  0.1442E-02  0.8106E-01  0.8106E-01
     10.680  0.1673E-02  0.1673E-02  0.8130E-01  0.8130E-01
     10.835  0.2449E-02  0.2449E-02  0.8162E-01  0.8162E-01
     10.991  0.3566E-02  0.3566E-02  0.8209E-01  0.8209E-01
     11.146  0.4627E-02  0.4627E-02  0.8273E-01  0.8273E-01
     11.301  0.4088E-02  0.4088E-02  0.8341E-01  0.8341E-01
     11.456  0.4002E-02  0.4002E-02  0.8403E-01  0.8403E-01
     11.611  0.3636E-02  0.3636E-02  0.8463E-01  0.8463E-01
     11.766  0.3186E-02  0.3186E-02  0.8515E-01  0.8515E-01
     11.921  0.3028E-02  0.3028E-02  0.8563E-01  0.8563E-01
     12.076  0.2913E-02  0.2913E-02  0.8610E-01  0.8610E-01
     12.232  0.2859E-02  0.2859E-02  0.8654E-01  0.8654E-01
     12.387  0.2950E-02  0.2950E-02  0.8699E-01  0.8699E-01
     12.542  0.3018E-02  0.3018E-02  0.8745E-01  0.8745E-01
     12.697  0.2764E-02  0.2764E-02  0.8791E-01  0.8791E-01
     12.852  0.2594E-02  0.2594E-02  0.8833E-01  0.8833E-01
     13.007  0.2515E-02  0.2515E-02  0.8872E-01  0.8872E-01
     13.162  0.2352E-02  0.2352E-02  0.8910E-01  0.8910E-01
     13.317  0.2249E-02  0.2249E-02  0.8946E-01  0.8946E-01
     13.472  0.2152E-02  0.2152E-02  0.8980E-01  0.8980E-01
     13.628  0.2075E-02  0.2075E-02  0.9013E-01  0.9013E-01
     13.783  0.2029E-02  0.2029E-02  0.9044E-01  0.9044E-01
     13.938  0.1986E-02  0.1986E-02  0.9076E-01  0.9076E-01
     14.093  0.1943E-02  0.1943E-02  0.9106E-01  0.9106E-01
     14.248  0.1895E-02  0.1895E-02  0.9136E-01  0.9136E-01
     14.403  0.1846E-02  0.1846E-02  0.9165E-01  0.9165E-01
     14.558  0.1797E-02  0.1797E-02  0.9193E-01  0.9193E-01
     14.713  0.1760E-02  0.1760E-02  0.9221E-01  0.9221E-01
     14.868  0.1730E-02  0.1730E-02  0.9248E-01  0.9248E-01
     15.024  0.1702E-02  0.1702E-02  0.9274E-01  0.9274E-01
     15.179  0.1675E-02  0.1675E-02  0.9301E-01  0.9301E-01
     15.334  0.1649E-02  0.1649E-02  0.9326E-01  0.9326E-01
     15.489  0.1623E-02  0.1623E-02  0.9352E-01  0.9352E-01
     15.644  0.1598E-02  0.1598E-02  0.9377E-01  0.9377E-01
     15.799  0.1580E-02  0.1580E-02  0.9401E-01  0.9401E-01
     15.954  0.1567E-02  0.1567E-02  0.9426E-01  0.9426E-01
     16.109  0.1557E-02  0.1557E-02  0.9450E-01  0.9450E-01
     16.264  0.1752E-02  0.1752E-02  0.9475E-01  0.9475E-01
     16.420  0.2212E-02  0.2212E-02  0.9506E-01  0.9506E-01
     16.575  0.2723E-02  0.2723E-02  0.9544E-01  0.9544E-01
     16.730  0.2969E-02  0.2969E-02  0.9589E-01  0.9589E-01
     16.885  0.3112E-02  0.3112E-02  0.9636E-01  0.9636E-01
     17.040  0.3320E-02  0.3320E-02  0.9686E-01  0.9686E-01
     17.195  0.3568E-02  0.3568E-02  0.9739E-01  0.9739E-01
     17.350  0.3823E-02  0.3823E-02  0.9796E-01  0.9796E-01
     17.505  0.4219E-02  0.4219E-02  0.9858E-01  0.9858E-01
     17.661  0.4668E-02  0.4668E-02  0.9927E-01  0.9927E-01
     17.816  0.5311E-02  0.5311E-02  0.1000E+00  0.1000E+00
     17.971  0.6872E-02  0.6871E-02  0.1012E+00  0.1012E+00
     18.126  0.5894E-02  0.5894E-02  0.1022E+00  0.1022E+00
     18.281  0.7692E-02  0.7692E-02  0.1031E+00  0.1031E+00
     18.436  0.5236E-02  0.5236E-02  0.1043E+00  0.1043E+00
     18.591  0.5127E-02  0.5127E-02  0.1050E+00  0.1050E+00
     18.746  0.6553E-02  0.6553E-02  0.1059E+00  0.1059E+00
     18.901  0.6584E-02  0.6584E-02  0.1069E+00  0.1069E+00
     19.057  0.7600E-02  0.7600E-02  0.1081E+00  0.1081E+00
     19.212  0.6921E-02  0.6921E-02  0.1092E+00  0.1092E+00
     19.367  0.6295E-02  0.6295E-02  0.1102E+00  0.1102E+00
     19.522  0.6585E-02  0.6585E-02  0.1112E+00  0.1112E+00
     19.677  0.7244E-02  0.7244E-02  0.1123E+00  0.1123E+00
     19.832  0.7035E-02  0.7035E-02  0.1134E+00  0.1134E+00
     19.987  0.6488E-02  0.6488E-02  0.1145E+00  0.1145E+00
     20.142  0.5456E-02  0.5456E-02  0.1153E+00  0.1153E+00
     20.297  0.5696E-02  0.5696E-02  0.1162E+00  0.1162E+00
     20.453  0.6180E-02  0.6180E-02  0.1171E+00  0.1171E+00
     20.608  0.6806E-02  0.6806E-02  0.1181E+00  0.1181E+00
     20.763  0.7689E-02  0.7689E-02  0.1193E+00  0.1193E+00
     20.918  0.5488E-02  0.5488E-02  0.1203E+00  0.1203E+00
     21.073  0.4971E-02  0.4971E-02  0.1211E+00  0.1211E+00
     21.228  0.4952E-02  0.4952E-02  0.1219E+00  0.1219E+00
     21.383  0.4708E-02  0.4708E-02  0.1227E+00  0.1227E+00
     21.538  0.4206E-02  0.4206E-02  0.1234E+00  0.1234E+00
     21.694  0.4049E-02  0.4049E-02  0.1240E+00  0.1240E+00
     21.849  0.4190E-02  0.4190E-02  0.1246E+00  0.1246E+00
     22.004  0.4297E-02  0.4297E-02  0.1253E+00  0.1253E+00
     22.159  0.4216E-02  0.4216E-02  0.1260E+00  0.1260E+00
     22.314  0.4120E-02  0.4120E-02  0.1266E+00  0.1266E+00
     22.469  0.4678E-02  0.4678E-02  0.1273E+00  0.1273E+00
     22.624  0.5522E-02  0.5522E-02  0.1281E+00  0.1281E+00
     22.779  0.6146E-02  0.6146E-02  0.1290E+00  0.1290E+00
     22.934  0.6518E-02  0.6518E-02  0.1300E+00  0.1300E+00
     23.090  0.6448E-02  0.6448E-02  0.1310E+00  0.1310E+00
     23.245  0.7011E-02  0.7011E-02  0.1320E+00  0.1320E+00
     23.400  0.7926E-02  0.7926E-02  0.1332E+00  0.1332E+00
     23.555  0.8266E-02  0.8266E-02  0.1344E+00  0.1344E+00
     23.710  0.8223E-02  0.8223E-02  0.1357E+00  0.1357E+00
     23.865  0.7756E-02  0.7756E-02  0.1370E+00  0.1370E+00
     24.020  0.6667E-02  0.6667E-02  0.1380E+00  0.1380E+00
     24.175  0.6685E-02  0.6685E-02  0.1391E+00  0.1391E+00
     24.330  0.6457E-02  0.6457E-02  0.1401E+00  0.1401E+00
     24.486  0.6549E-02  0.6549E-02  0.1411E+00  0.1411E+00
     24.641  0.6579E-02  0.6579E-02  0.1421E+00  0.1421E+00
     24.796  0.6557E-02  0.6557E-02  0.1431E+00  0.1431E+00
     24.951  0.6780E-02  0.6780E-02  0.1442E+00  0.1442E+00
     25.106  0.6968E-02  0.6968E-02  0.1452E+00  0.1452E+00
     25.261  0.6842E-02  0.6842E-02  0.1463E+00  0.1463E+00
     25.416  0.6387E-02  0.6387E-02  0.1474E+00  0.1474E+00
     25.571  0.5672E-02  0.5672E-02  0.1483E+00  0.1483E+00
     25.726  0.5681E-02  0.5681E-02  0.1492E+00  0.1492E+00
     25.882  0.4833E-02  0.4833E-02  0.1500E+00  0.1500E+00
     26.037  0.4791E-02  0.4791E-02  0.1507E+00  0.1507E+00
     26.192  0.4788E-02  0.4788E-02  0.1515E+00  0.1515E+00
     26.347  0.4741E-02  0.4741E-02  0.1522E+00  0.1522E+00
     26.502  0.4780E-02  0.4780E-02  0.1529E+00  0.1529E+00
     26.657  0.4623E-02  0.4623E-02  0.1537E+00  0.1537E+00
     26.812  0.4123E-02  0.4122E-02  0.1544E+00  0.1544E+00
     26.967  0.3645E-02  0.3645E-02  0.1550E+00  0.1550E+00
     27.123  0.3324E-02  0.3324E-02  0.1555E+00  0.1555E+00
     27.278  0.3040E-02  0.3040E-02  0.1560E+00  0.1560E+00
     27.433  0.2798E-02  0.2798E-02  0.1564E+00  0.1564E+00
     27.588  0.2592E-02  0.2592E-02  0.1569E+00  0.1569E+00
     27.743  0.2451E-02  0.2451E-02  0.1573E+00  0.1573E+00
     27.898  0.2352E-02  0.2352E-02  0.1576E+00  0.1576E+00
     28.053  0.2380E-02  0.2380E-02  0.1580E+00  0.1580E+00
     28.208  0.2311E-02  0.2311E-02  0.1584E+00  0.1584E+00
     28.363  0.1959E-02  0.1959E-02  0.1587E+00  0.1587E+00
     28.519  0.1802E-02  0.1802E-02  0.1590E+00  0.1590E+00
     28.674  0.1659E-02  0.1659E-02  0.1592E+00  0.1592E+00
     28.829  0.1536E-02  0.1536E-02  0.1595E+00  0.1595E+00
     28.984  0.1072E-02  0.1072E-02  0.1597E+00  0.1597E+00
     29.139  0.6743E-03  0.6743E-03  0.1598E+00  0.1598E+00
     29.294  0.4770E-03  0.4770E-03  0.1599E+00  0.1599E+00
     29.449  0.2929E-03  0.2929E-03  0.1600E+00  0.1600E+00
     29.604  0.2447E-04  0.2447E-04  0.1600E+00  0.1600E+00
     29.759  0.0000E+00  0.0000E+00  0.1600E+00  0.1600E+00
     29.915  0.0000E+00  0.0000E+00  0.1600E+00  0.1600E+00
     30.070  0.0000E+00  0.0000E+00  0.1600E+00  0.1600E+00
     30.225  0.0000E+00  0.0000E+00  0.1600E+00  0.1600E+00
     30.380  0.0000E+00  0.0000E+00  0.1600E+00  0.1600E+00
     30.535  0.0000E+00  0.0000E+00  0.1600E+00  0.1600E+00
     30.690  0.0000E+00  0.0000E+00  0.1600E+00  0.1600E+00
     30.845  0.0000E+00  0.0000E+00  0.1600E+00  0.1600E+00
     31.000  0.0000E+00  0.0000E+00  0.1600E+00  0.1600E+00
     31.155  0.0000E+00  0.0000E+00  0.1600E+00  0.1600E+00
     31.311  0.0000E+00  0.0000E+00  0.1600E+00  0.1600E+00
     31.466  0.0000E+00  0.0000E+00  0.1600E+00  0.1600E+00
     31.621  0.0000E+00  0.0000E+00  0.1600E+00  0.1600E+00
     31.776  0.0000E+00  0.0000E+00  0.1600E+00  0.1600E+00
     31.77595069    -14.75841836  301      8.87255715      1.00000000
    -14.758  0.0000E+00  0.0000E+00  0.0000E+00  0.0000E+00  0.0000E+00  0.0000E+00  0.0000E+00  0.0000E+00  0.0000E+00  0.0000E+00  0.0000E+00  0.0000E+00  0.0000E+00  0.0000E+00  0.0000E+00  0.0000E+00  0.0000E+00  0.0000E+00
    -14.603  0.0000E+00  0.0000E+00  0.0000E+00  0.0000E+00  0.0000E+00  0.0000E+00  0.0000E+00  0.0000E+00  0.0000E+00  0.0000E+00  0.0000E+00  0.0000E+00  0.0000E+00  0.0000E+00  0.0000E+00  0.0000E+00  0.0000E+00  0.0000E+00
    -14.448  0.0000E+00  0.0000E+00  0.0000E+00  0.0000E+00  0.0000E+00  0.0000E+00  0.0000E+00  0.0000E+00  0.0000E+00  0.0000E+00  0.0000E+00  0.0000E+00  0.0000E+00  0.0000E+00  0.0000E+00  0.0000E+00  0.0000E+00  0.0000E+00
    -14.293  0.0000E+00  0.0000E+00  0.0000E+00  0.0000E+00  0.0000E+00  0.0000E+00  0.0000E+00  0.0000E+00  0.0000E+00  0.0000E+00  0.0000E+00  0.0000E+00  0.0000E+00  0.0000E+00  0.0000E+00  0.0000E+00  0.0000E+00  0.0000E+00
    -14.138  0.0000E+00  0.0000E+00  0.0000E+00  0.0000E+00  0.0000E+00  0.0000E+00  0.0000E+00  0.0000E+00  0.0000E+00  0.0000E+00  0.0000E+00  0.0000E+00  0.0000E+00  0.0000E+00  0.0000E+00  0.0000E+00  0.0000E+00  0.0000E+00
    -13.983  0.0000E+00  0.0000E+00  0.0000E+00  0.0000E+00  0.0000E+00  0.0000E+00  0.0000E+00  0.0000E+00  0.0000E+00  0.0000E+00  0.0000E+00  0.0000E+00  0.0000E+00  0.0000E+00  0.0000E+00  0.0000E+00  0.0000E+00  0.0000E+00
    -13.828  0.0000E+00  0.0000E+00  0.0000E+00  0.0000E+00  0.0000E+00  0.0000E+00  0.0000E+00  0.0000E+00  0.0000E+00  0.0000E+00  0.0000E+00  0.0000E+00  0.0000E+00  0.0000E+00  0.0000E+00  0.0000E+00  0.0000E+00  0.0000E+00
    -13.673  0.0000E+00  0.0000E+00  0.0000E+00  0.0000E+00  0.0000E+00  0.0000E+00  0.0000E+00  0.0000E+00  0.0000E+00  0.0000E+00  0.0000E+00  0.0000E+00  0.0000E+00  0.0000E+00  0.0000E+00  0.0000E+00  0.0000E+00  0.0000E+00
    -13.518  0.0000E+00  0.0000E+00  0.0000E+00  0.0000E+00  0.0000E+00  0.0000E+00  0.0000E+00  0.0000E+00  0.0000E+00  0.0000E+00  0.0000E+00  0.0000E+00  0.0000E+00  0.0000E+00  0.0000E+00  0.0000E+00  0.0000E+00  0.0000E+00
    -13.362  0.0000E+00  0.0000E+00  0.0000E+00  0.0000E+00  0.0000E+00  0.0000E+00  0.0000E+00  0.0000E+00  0.0000E+00  0.0000E+00  0.0000E+00  0.0000E+00  0.0000E+00  0.0000E+00  0.0000E+00  0.0000E+00  0.0000E+00  0.0000E+00
    -13.207  0.0000E+00  0.0000E+00  0.0000E+00  0.0000E+00  0.0000E+00  0.0000E+00  0.0000E+00  0.0000E+00  0.0000E+00  0.0000E+00  0.0000E+00  0.0000E+00  0.0000E+00  0.0000E+00  0.0000E+00  0.0000E+00  0.0000E+00  0.0000E+00
    -13.052  0.0000E+00  0.0000E+00  0.0000E+00  0.0000E+00  0.0000E+00  0.0000E+00  0.0000E+00  0.0000E+00  0.0000E+00  0.0000E+00  0.0000E+00  0.0000E+00  0.0000E+00  0.0000E+00  0.0000E+00  0.0000E+00  0.0000E+00  0.0000E+00
    -12.897  0.0000E+00  0.0000E+00  0.0000E+00  0.0000E+00  0.0000E+00  0.0000E+00  0.0000E+00  0.0000E+00  0.0000E+00  0.0000E+00  0.0000E+00  0.0000E+00  0.0000E+00  0.0000E+00  0.0000E+00  0.0000E+00  0.0000E+00  0.0000E+00
    -12.742  0.0000E+00  0.0000E+00  0.0000E+00  0.0000E+00  0.0000E+00  0.0000E+00  0.0000E+00  0.0000E+00  0.0000E+00  0.0000E+00  0.0000E+00  0.0000E+00  0.0000E+00  0.0000E+00  0.0000E+00  0.0000E+00  0.0000E+00  0.0000E+00
    -12.587  0.1383E-02  0.1383E-02  0.1115E-05  0.1115E-05  0.1586E-05  0.1586E-05  0.3346E-05  0.3346E-05  0.0000E+00  0.0000E+00  0.0000E+00  0.0000E+00  0.0000E+00  0.0000E+00  0.0000E+00  0.0000E+00  0.0000E+00  0.0000E+00
    -12.432  0.8121E-02  0.8121E-02  0.2820E-04  0.2820E-04  0.1376E-04  0.1376E-04  0.3550E-04  0.3550E-04  0.0000E+00  0.0000E+00  0.0000E+00  0.0000E+00  0.0000E+00  0.0000E+00  0.0000E+00  0.0000E+00  0.0000E+00  0.0000E+00
    -12.277  0.1270E-01  0.1270E-01  0.8825E-04  0.8825E-04  0.2541E-04  0.2541E-04  0.9279E-04  0.9280E-04  0.0000E+00  0.0000E+00  0.0000E+00  0.0000E+00  0.0000E+00  0.0000E+00  0.0000E+00  0.0000E+00  0.0000E+00  0.0000E+00
    -12.121  0.1596E-01  0.1596E-01  0.1537E-03  0.1537E-03  0.2954E-04  0.2954E-04  0.1659E-03  0.1659E-03  0.0000E+00  0.0000E+00  0.0000E+00  0.0000E+00  0.0000E+00  0.0000E+00  0.0000E+00  0.0000E+00  0.0000E+00  0.0000E+00
    -11.966  0.1972E-01  0.1972E-01  0.2436E-03  0.2437E-03  0.3583E-04  0.3583E-04  0.2636E-03  0.2636E-03  0.0000E+00  0.0000E+00  0.0000E+00  0.0000E+00  0.0000E+00  0.0000E+00  0.0000E+00  0.0000E+00  0.0000E+00  0.0000E+00
    -11.811  0.2329E-01  0.2329E-01  0.3540E-03  0.3540E-03  0.3806E-04  0.3806E-04  0.3695E-03  0.3695E-03  0.0000E+00  0.0000E+00  0.0000E+00  0.0000E+00  0.0000E+00  0.0000E+00  0.0000E+00  0.0000E+00  0.0000E+00  0.0000E+00
    -11.656  0.2757E-01  0.2757E-01  0.4850E-03  0.4850E-03  0.4274E-04  0.4274E-04  0.5017E-03  0.5017E-03  0.0000E+00  0.0000E+00  0.0000E+00  0.0000E+00  0.0000E+00  0.0000E+00  0.0000E+00  0.0000E+00  0.0000E+00  0.0000E+00
    -11.501  0.2812E-01  0.2812E-01  0.6227E-03  0.6227E-03  0.7621E-04  0.7621E-04  0.6451E-03  0.6451E-03  0.0000E+00  0.0000E+00  0.0000E+00  0.0000E+00  0.0000E+00  0.0000E+00  0.0000E+00  0.0000E+00  0.0000E+00  0.0000E+00
    -11.346  0.2843E-01  0.2843E-01  0.7655E-03  0.7655E-03  0.1086E-03  0.1086E-03  0.7855E-03  0.7855E-03  0.0000E+00  0.0000E+00  0.0000E+00  0.0000E+00  0.0000E+00  0.0000E+00  0.0000E+00  0.0000E+00  0.0000E+00  0.0000E+00
    -11.191  0.2945E-01  0.2945E-01  0.9189E-03  0.9189E-03  0.1384E-03  0.1384E-03  0.9342E-03  0.9342E-03  0.0000E+00  0.0000E+00  0.0000E+00  0.0000E+00  0.0000E+00  0.0000E+00  0.0000E+00  0.0000E+00  0.0000E+00  0.0000E+00
    -11.036  0.3053E-01  0.3053E-01  0.1070E-02  0.1070E-02  0.1675E-03  0.1675E-03  0.1092E-02  0.1092E-02  0.0000E+00  0.0000E+00  0.0000E+00  0.0000E+00  0.0000E+00  0.0000E+00  0.0000E+00  0.0000E+00  0.0000E+00  0.0000E+00
    -10.881  0.3147E-01  0.3147E-01  0.1215E-02  0.1215E-02  0.1921E-03  0.1921E-03  0.1252E-02  0.1252E-02  0.0000E+00  0.0000E+00  0.0000E+00  0.0000E+00  0.0000E+00  0.0000E+00  0.0000E+00  0.0000E+00  0.0000E+00  0.0000E+00
    -10.725  0.3289E-01  0.3289E-01  0.1402E-02  0.1402E-02  0.2156E-03  0.2156E-03  0.1425E-02  0.1425E-02  0.0000E+00  0.0000E+00  0.0000E+00  0.0000E+00  0.0000E+00  0.0000E+00  0.0000E+00  0.0000E+00  0.0000E+00  0.0000E+00
    -10.570  0.3688E-01  0.3688E-01  0.1598E-02  0.1598E-02  0.2355E-03  0.2355E-03  0.1612E-02  0.1612E-02  0.0000E+00  0.0000E+00  0.0000E+00  0.0000E+00  0.0000E+00  0.0000E+00  0.0000E+00  0.0000E+00  0.0000E+00  0.0000E+00
    -10.415  0.4093E-01  0.4093E-01  0.1791E-02  0.1791E-02  0.2504E-03  0.2504E-03  0.1818E-02  0.1818E-02  0.0000E+00  0.0000E+00  0.0000E+00  0.0000E+00  0.0000E+00  0.0000E+00  0.0000E+00  0.0000E+00  0.0000E+00  0.0000E+00
    -10.260  0.4459E-01  0.4460E-01  0.2003E-02  0.2003E-02  0.2603E-03  0.2603E-03  0.2047E-02  0.2047E-02  0.0000E+00  0.0000E+00  0.0000E+00  0.0000E+00  0.0000E+00  0.0000E+00  0.0000E+00  0.0000E+00  0.0000E+00  0.0000E+00
    -10.105  0.4519E-01  0.4519E-01  0.2286E-02  0.2286E-02  0.2582E-03  0.2582E-03  0.2305E-02  0.2305E-02  0.0000E+00  0.0000E+00  0.0000E+00  0.0000E+00  0.0000E+00  0.0000E+00  0.0000E+00  0.0000E+00  0.0000E+00  0.0000E+00
     -9.950  0.4491E-01  0.4491E-01  0.2540E-02  0.2540E-02  0.2533E-03  0.2533E-03  0.2553E-02  0.2553E-02  0.0000E+00  0.0000E+00  0.0000E+00  0.0000E+00  0.0000E+00  0.0000E+00  0.0000E+00  0.0000E+00  0.0000E+00  0.0000E+00
     -9.795  0.4485E-01  0.4485E-01  0.2766E-02  0.2766E-02  0.2515E-03  0.2515E-03  0.2792E-02  0.2792E-02  0.0000E+00  0.0000E+00  0.0000E+00  0.0000E+00  0.0000E+00  0.0000E+00  0.0000E+00  0.0000E+00  0.0000E+00  0.0000E+00
     -9.640  0.4441E-01  0.4441E-01  0.2994E-02  0.2994E-02  0.2476E-03  0.2476E-03  0.3025E-02  0.3025E-02  0.0000E+00  0.0000E+00  0.0000E+00  0.0000E+00  0.0000E+00  0.0000E+00  0.0000E+00  0.0000E+00  0.0000E+00  0.0000E+00
     -9.485  0.4394E-01  0.4394E-01  0.3226E-02  0.3226E-02  0.2471E-03  0.2471E-03  0.3263E-02  0.3263E-02  0.0000E+00  0.0000E+00  0.0000E+00  0.0000E+00  0.0000E+00  0.0000E+00  0.0000E+00  0.0000E+00  0.0000E+00  0.0000E+00
     -9.329  0.4390E-01  0.4390E-01  0.3521E-02  0.3521E-02  0.2423E-03  0.2423E-03  0.3530E-02  0.3530E-02  0.0000E+00  0.0000E+00  0.0000E+00  0.0000E+00  0.0000E+00  0.0000E+00  0.0000E+00  0.0000E+00  0.0000E+00  0.0000E+00
     -9.174  0.4384E-01  0.4384E-01  0.3778E-02  0.3778E-02  0.2363E-03  0.2363E-03  0.3782E-02  0.3783E-02  0.0000E+00  0.0000E+00  0.0000E+00  0.0000E+00  0.0000E+00  0.0000E+00  0.0000E+00  0.0000E+00  0.0000E+00  0.0000E+00
     -9.019  0.4349E-01  0.4349E-01  0.3995E-02  0.3995E-02  0.2353E-03  0.2353E-03  0.4013E-02  0.4013E-02  0.0000E+00  0.0000E+00  0.0000E+00  0.0000E+00  0.0000E+00  0.0000E+00  0.0000E+00  0.0000E+00  0.0000E+00  0.0000E+00
     -8.864  0.4300E-01  0.4300E-01  0.4201E-02  0.4201E-02  0.2357E-03  0.2357E-03  0.4229E-02  0.4229E-02  0.0000E+00  0.0000E+00  0.0000E+00  0.0000E+00  0.0000E+00  0.0000E+00  0.0000E+00  0.0000E+00  0.0000E+00  0.0000E+00
     -8.709  0.4287E-01  0.4287E-01  0.4459E-02  0.4459E-02  0.2320E-03  0.2320E-03  0.4457E-02  0.4457E-02  0.0000E+00  0.0000E+00  0.0000E+00  0.0000E+00  0.0000E+00  0.0000E+00  0.0000E+00  0.0000E+00  0.0000E+00  0.0000E+00
     -8.554  0.4298E-01  0.4298E-01  0.4768E-02  0.4768E-02  0.2267E-03  0.2267E-03  0.4719E-02  0.4719E-02  0.0000E+00  0.0000E+00  0.0000E+00  0.0000E+00  0.0000E+00  0.0000E+00  0.0000E+00  0.0000E+00  0.0000E+00  0.0000E+00
     -8.399  0.4278E-01  0.4278E-01  0.5015E-02  0.5015E-02  0.2242E-03  0.2242E-03  0.4963E-02  0.4963E-02  0.0000E+00  0.0000E+00  0.0000E+00  0.0000E+00  0.0000E+00  0.0000E+00  0.0000E+00  0.0000E+00  0.0000E+00  0.0000E+00
     -8.244  0.4242E-01  0.4242E-01  0.5234E-02  0.5234E-02  0.2236E-03  0.2236E-03  0.5186E-02  0.5186E-02  0.0000E+00  0.0000E+00  0.0000E+00  0.0000E+00  0.0000E+00  0.0000E+00  0.0000E+00  0.0000E+00  0.0000E+00  0.0000E+00
     -8.088  0.4215E-01  0.4215E-01  0.5438E-02  0.5438E-02  0.2225E-03  0.2225E-03  0.5395E-02  0.5395E-02  0.0000E+00  0.0000E+00  0.0000E+00  0.0000E+00  0.0000E+00  0.0000E+00  0.0000E+00  0.0000E+00  0.0000E+00  0.0000E+00
     -7.933  0.4207E-01  0.4207E-01  0.5663E-02  0.5663E-02  0.2201E-03  0.2201E-03  0.5606E-02  0.5606E-02  0.0000E+00  0.0000E+00  0.0000E+00  0.0000E+00  0.0000E+00  0.0000E+00  0.0000E+00  0.0000E+00  0.0000E+00  0.0000E+00
     -7.778  0.4221E-01  0.4221E-01  0.5923E-02  0.5923E-02  0.2171E-03  0.2171E-03  0.5836E-02  0.5836E-02  0.0000E+00  0.0000E+00  0.0000E+00  0.0000E+00  0.0000E+00  0.0000E+00  0.0000E+00  0.0000E+00  0.0000E+00  0.0000E+00
     -7.623  0.4222E-01  0.4222E-01  0.6184E-02  0.6184E-02  0.2153E-03  0.2153E-03  0.6055E-02  0.6055E-02  0.0000E+00  0.0000E+00  0.0000E+00  0.0000E+00  0.0000E+00  0.0000E+00  0.0000E+00  0.0000E+00  0.0000E+00  0.0000E+00
     -7.468  0.4220E-01  0.4220E-01  0.6429E-02  0.6429E-02  0.2142E-03  0.2142E-03  0.6248E-02  0.6248E-02  0.0000E+00  0.0000E+00  0.0000E+00  0.0000E+00  0.0000E+00  0.0000E+00  0.0000E+00  0.0000E+00  0.0000E+00  0.0000E+00
     -7.313  0.4238E-01  0.4238E-01  0.6630E-02  0.6630E-02  0.2138E-03  0.2138E-03  0.6403E-02  0.6403E-02  0.0000E+00  0.0000E+00  0.0000E+00  0.0000E+00  0.0000E+00  0.0000E+00  0.0000E+00  0.0000E+00  0.0000E+00  0.0000E+00
     -7.158  0.4279E-01  0.4279E-01  0.6806E-02  0.6806E-02  0.2142E-03  0.2142E-03  0.6524E-02  0.6524E-02  0.0000E+00  0.0000E+00  0.0000E+00  0.0000E+00  0.0000E+00  0.0000E+00  0.0000E+00  0.0000E+00  0.0000E+00  0.0000E+00
     -7.003  0.4356E-01  0.4356E-01  0.7012E-02  0.7012E-02  0.2151E-03  0.2151E-03  0.6639E-02  0.6639E-02  0.0000E+00  0.0000E+00  0.0000E+00  0.0000E+00  0.0000E+00  0.0000E+00  0.0000E+00  0.0000E+00  0.0000E+00  0.0000E+00