    4    4  100    2
  0.1028436E+02  0.2467291E-09  0.2467292E-09  0.7803073E-09  0.1500000E-16
   1.0000000000000000E-004
  CAR 
 unknown system                          
     16    111     16
 
  0.3742002E-15  0.3742002E-15  0.3742002E-15  0.7716049E-03
    1      -12.643217    -12.643220   1.000000   1.000000
    2      -10.250240    -10.250244   1.000000   1.000000
    3       -2.500273     -2.500276   1.000000   1.000000
    4        5.222682      5.222677   1.000000   1.000000
    5        5.965644      5.965636   1.000000   1.000000
    6        5.965704      5.965697   1.000000   1.000000
    7        6.255598      6.255590   1.000000   1.000000
    8        6.255656      6.255649   1.000000   1.000000
    9       17.882744     17.882737   0.000000   0.000000
   10       17.882806     17.882798   0.000000   0.000000
   11       18.418869     18.418861   0.000000   0.000000
   12       18.418937     18.418929   0.000000   0.000000
   13       18.578603     18.578600   0.000000   0.000000
   14       20.883100     20.883092   0.000000   0.000000
   15       22.694698     22.694688   0.000000   0.000000
   16       23.134640     23.134638   0.000000   0.000000
 
  0.5555556E-01  0.3821610E-15  0.3742002E-15  0.4629630E-02
    1      -12.561497    -12.561501   1.000000   1.000000
    2      -10.176071    -10.176075   1.000000   1.000000
    3       -2.400689     -2.400693   1.000000   1.000000
    4        5.303857      5.303851   1.000000   1.000000
    5        5.608905      5.608898   1.000000   1.000000
    6        5.757319      5.757312   1.000000   1.000000
    7        5.981219      5.981211   1.000000   1.000000
    8        6.109307      6.109300   1.000000   1.000000
    9       17.888710     17.888702   0.000000   0.000000
   10       18.232238     18.232230   0.000000   0.000000
   11       18.318595     18.318589   0.000000   0.000000
   12       18.780623     18.780616   0.000000   0.000000
   13       18.837253     18.837249   0.000000   0.000000
   14       20.538642     20.538634   0.000000   0.000000
   15       22.410697     22.410687   0.000000   0.000000
   16       23.274467     23.274465   0.000000   0.000000
 
  0.1111111E+00  0.3889703E-15  0.3742002E-15  0.4629630E-02
    1      -12.316571    -12.316574   1.000000   1.000000
    2       -9.954046     -9.954050   1.000000   1.000000
    3       -2.102619     -2.102623   1.000000   1.000000
    4        4.651380      4.651374   1.000000   1.000000
    5        5.201642      5.201635   1.000000   1.000000
    6        5.233265      5.233258   1.000000   1.000000
    7        5.545096      5.545090   1.000000   1.000000
    8        5.694999      5.694992   1.000000   1.000000
    9       17.789416     17.789409   0.000000   0.000000
   10       18.371835     18.371830   0.000000   0.000000
   11       19.216759     19.216751   0.000000   0.000000
   12       19.243048     19.243044   0.000000   0.000000
   13       19.567239     19.567231   0.000000   0.000000
   14       19.791437     19.791429   0.000000   0.000000
   15       21.616683     21.616674   0.000000   0.000000
   16       23.692992     23.692988   0.000000   0.000000
 
  0.1666667E+00  0.3636087E-15  0.3742002E-15  0.4629630E-02
    1      -11.909521    -11.909524   1.000000   1.000000
    2       -9.584867     -9.584871   1.000000   1.000000
    3       -1.608031     -1.608034   1.000000   1.000000
    4        3.297568      3.297562   1.000000   1.000000
    5        4.051843      4.051837   1.000000   1.000000
    6        4.560100      4.560093   1.000000   1.000000
    7        5.112468      5.112461   1.000000   1.000000
    8        5.937697      5.937691   1.000000   1.000000
    9       17.548245     17.548239   0.000000   0.000000
   10       18.103839     18.103832   0.000000   0.000000
   11       18.553796     18.553791   0.000000   0.000000
   12       19.686429     19.686426   0.000000   0.000000
   13       20.483874     20.483865   0.000000   0.000000
   14       20.706959     20.706950   0.000000   0.000000
   15       21.293863     21.293855   0.000000   0.000000
   16       24.302491     24.302486   0.000000   0.000000
 
  0.2222222E+00  0.3951816E-15  0.3742002E-15  0.4629630E-02
    1      -11.342427    -11.342430   1.000000   1.000000
    2       -9.070440     -9.070443   1.000000   1.000000
    3       -0.921001     -0.921005   1.000000   1.000000
    4        1.727800      1.727794   1.000000   1.000000
    5        2.684546      2.684539   1.000000   1.000000
    6        3.864252      3.864245   1.000000   1.000000
    7        4.480040      4.480032   1.000000   1.000000
    8        6.462096      6.462089   1.000000   1.000000
    9       16.323555     16.323548   0.000000   0.000000
   10       17.220997     17.220991   0.000000   0.000000
   11       18.756936     18.756932   0.000000   0.000000
   12       19.192416     19.192407   0.000000   0.000000
   13       20.171903     20.171900   0.000000   0.000000
   14       22.557489     22.557481   0.000000   0.000000
   15       23.132949     23.132940   0.000000   0.000000
   16       24.937795     24.937789   0.000000   0.000000
 
  0.2777778E+00  0.3860699E-15  0.3742002E-15  0.4629630E-02
    1      -10.617721    -10.617724   1.000000   1.000000
    2       -8.413248     -8.413252   1.000000   1.000000
    3       -0.048180     -0.048183   1.000000   1.000000
    4        0.069442      0.069436   1.000000   1.000000
    5        1.217954      1.217949   1.000000   1.000000
    6        3.227847      3.227840   1.000000   1.000000
    7        3.885616      3.885609   1.000000   1.000000
    8        7.073120      7.073114   1.000000   1.000000
    9       14.437980     14.437974   0.000000   0.000000
   10       16.876522     16.876517   0.000000   0.000000
   11       17.840455     17.840447   0.000000   0.000000
   12       18.907381     18.907376   0.000000   0.000000
   13       20.753089     20.753086   0.000000   0.000000
   14       24.649926     24.649917   0.000000   0.000000
   15       25.188402     25.188393   0.000000   0.000000
   16       25.444450     25.444443   0.000000   0.000000
 
  0.3333333E+00  0.3592851E-15  0.3742002E-15  0.4629630E-02
    1       -9.739792     -9.739796   1.000000   1.000000
    2       -7.617988     -7.617992   1.000000   1.000000
    3       -1.593164     -1.593169   1.000000   1.000000
    4       -0.268571     -0.268576   1.000000   1.000000
    5        0.996848      0.996845   1.000000   1.000000
    6        2.698368      2.698361   1.000000   1.000000
    7        3.383945      3.383938   1.000000   1.000000
    8        7.641952      7.641945   1.000000   1.000000
    9       12.708584     12.708579   0.000000   0.000000
   10       16.473363     16.473356   0.000000   0.000000
   11       16.567346     16.567342   0.000000   0.000000
   12       18.985509     18.985505   0.000000   0.000000
   13       21.465320     21.465317   0.000000   0.000000
   14       25.670119     25.670112   0.000000   0.000000
   15       26.835725     26.835715   0.000000   0.000000
   16       27.315748     27.315738   0.000000   0.000000
 
  0.3888889E+00  0.3906177E-15  0.3742002E-15  0.4629630E-02
    1       -8.715116     -8.715119   1.000000   1.000000
    2       -6.692602     -6.692606   1.000000   1.000000
    3       -3.201364     -3.201369   1.000000   1.000000
    4       -1.720648     -1.720653   1.000000   1.000000
    5        2.184459      2.184455   1.000000   1.000000
    6        2.304654      2.304647   1.000000   1.000000
    7        3.007845      3.007838   1.000000   1.000000
    8        7.772134      7.772127   1.000000   1.000000
    9       11.625524     11.625519   0.000000   0.000000
   10       15.124351     15.124344   0.000000   0.000000
   11       16.328009     16.328005   0.000000   0.000000
   12       19.011409     19.011405   0.000000   0.000000
   13       22.297558     22.297554   0.000000   0.000000
   14       25.495358     25.495352   0.000000   0.000000
   15       28.695951     28.695947   0.000000   0.000000
   16       29.033581     29.033572   0.000000   0.000000
 
  0.4444444E+00  0.3934861E-15  0.3742002E-15  0.4629630E-02
    1       -7.558274     -7.558277   1.000000   1.000000
    2       -5.689029     -5.689034   1.000000   1.000000
    3       -4.669515     -4.669519   1.000000   1.000000
    4       -3.099918     -3.099923   1.000000   1.000000
    5        2.062801      2.062794   1.000000   1.000000
    6        2.775642      2.775635   1.000000   1.000000
    7        3.419961      3.419958   1.000000   1.000000
    8        7.039866      7.039859   1.000000   1.000000
    9       11.712742     11.712737   0.000000   0.000000
   10       13.844723     13.844715   0.000000   0.000000
   11       16.177733     16.177730   0.000000   0.000000
   12       19.014671     19.014667   0.000000   0.000000
   13       23.207295     23.207291   0.000000   0.000000
   14       24.935250     24.935245   0.000000   0.000000
   15       28.236032     28.236029   0.000000   0.000000
   16       28.820565     28.820557   0.000000   0.000000
 
  0.5000000E+00  0.4815189E-15  0.3742002E-15  0.2314815E-02
    1       -6.499677     -6.499677   1.000000   1.000000
    2       -6.001867     -6.001876   1.000000   1.000000
    3       -4.471719     -4.471717   1.000000   1.000000
    4       -4.275779     -4.275788   1.000000   1.000000
    5        1.981339      1.981332   1.000000   1.000000
    6        2.697235      2.697228   1.000000   1.000000
    7        4.174516      4.174513   1.000000   1.000000
    8        6.349113      6.349106   1.000000   1.000000
    9       12.329365     12.329361   0.000000   0.000000
   10       12.931286     12.931277   0.000000   0.000000
   11       16.127096     16.127093   0.000000   0.000000
   12       19.013906     19.013902   0.000000   0.000000
   13       24.116523     24.116518   0.000000   0.000000
   14       24.129808     24.129804   0.000000   0.000000
   15       28.078598     28.078595   0.000000   0.000000
   16       28.749683     28.749675   0.000000   0.000000
 
  0.5555556E-01  0.5555556E-01  0.3742002E-15  0.4629630E-02
    1      -12.398138    -12.398141   1.000000   1.000000
    2      -10.027944    -10.027947   1.000000   1.000000
    3       -2.201768     -2.201772   1.000000   1.000000
    4        5.019581      5.019574   1.000000   1.000000
    5        5.253502      5.253494   1.000000   1.000000
    6        5.465210      5.465204   1.000000   1.000000
    7        5.581695      5.581688   1.000000   1.000000
    8        5.771040      5.771032   1.000000   1.000000
    9       17.969006     17.968999   0.000000   0.000000
   10       18.265254     18.265247   0.000000   0.000000
   11       18.856879     18.856873   0.000000   0.000000
   12       19.169478     19.169473   0.000000   0.000000
   13       19.395386     19.395379   0.000000   0.000000
   14       19.888231     19.888222   0.000000   0.000000
   15       21.863914     21.863905   0.000000   0.000000
   16       23.573501     23.573498   0.000000   0.000000
 
  0.1111111E+00  0.5555556E-01  0.3742002E-15  0.9259259E-02
    1      -12.072193    -12.072196   1.000000   1.000000
    2       -9.732438     -9.732441   1.000000   1.000000
    3       -1.805562     -1.805566   1.000000   1.000000
    4        3.934777      3.934771   1.000000   1.000000
    5        4.414100      4.414093   1.000000   1.000000
    6        4.843227      4.843220   1.000000   1.000000
    7        5.213978      5.213970   1.000000   1.000000
    8        5.782469      5.782463   1.000000   1.000000
    9       17.938699     17.938692   0.000000   0.000000
   10       18.482833     18.482828   0.000000   0.000000
   11       18.702270     18.702263   0.000000   0.000000
   12       19.531136     19.531134   0.000000   0.000000
   13       19.953574     19.953565   0.000000   0.000000
   14       20.517990     20.517982   0.000000   0.000000
   15       20.871559     20.871551   0.000000   0.000000
   16       24.189985     24.189980   0.000000   0.000000
 
  0.1666667E+00  0.5555556E-01  0.3742002E-15  0.9259259E-02
    1      -11.585155    -11.585158   1.000000   1.000000
    2       -9.290615     -9.290618   1.000000   1.000000
    3       -1.214515     -1.214519   1.000000   1.000000
    4        2.507991      2.507985   1.000000   1.000000
    5        3.290806      3.290800   1.000000   1.000000
    6        4.017002      4.016995   1.000000   1.000000
    7        4.576925      4.576918   1.000000   1.000000
    8        6.242862      6.242856   1.000000   1.000000
    9       17.119640     17.119633   0.000000   0.000000
   10       17.708865     17.708859   0.000000   0.000000
   11       18.806029     18.806024   0.000000   0.000000
   12       19.632836     19.632828   0.000000   0.000000
   13       20.024437     20.024434   0.000000   0.000000
   14       21.321550     21.321542   0.000000   0.000000
   15       22.062090     22.062082   0.000000   0.000000
   16       25.013251     25.013245   0.000000   0.000000
 
  0.2222222E+00  0.5555556E-01  0.3742002E-15  0.9259259E-02
    1      -10.939261    -10.939264   1.000000   1.000000
    2       -8.704802     -8.704806   1.000000   1.000000
    3       -0.434009     -0.434013   1.000000   1.000000
    4        0.913539      0.913533   1.000000   1.000000
    5        1.933954      1.933948   1.000000   1.000000
    6        3.288682      3.288675   1.000000   1.000000
    7        3.946897      3.946890   1.000000   1.000000
    8        6.817906      6.817900   1.000000   1.000000
    9       15.310241     15.310235   0.000000   0.000000
   10       17.395029     17.395024   0.000000   0.000000
   11       18.309789     18.309781   0.000000   0.000000
   12       19.080503     19.080499   0.000000   0.000000
   13       20.537394     20.537391   0.000000   0.000000
   14       22.926713     22.926705   0.000000   0.000000
   15       23.892913     23.892904   0.000000   0.000000
   16       25.928428     25.928421   0.000000   0.000000
 
  0.2777778E+00  0.5555556E-01  0.3742002E-15  0.9259259E-02
    1      -10.138003    -10.138006   1.000000   1.000000
    2       -7.978665     -7.978669   1.000000   1.000000
    3       -0.736001     -0.736006   1.000000   1.000000
    4        0.483860      0.483854   1.000000   1.000000
    5        0.526266      0.526262   1.000000   1.000000
    6        2.678929      2.678923   1.000000   1.000000
    7        3.390122      3.390115   1.000000   1.000000
    8        7.435036      7.435030   1.000000   1.000000
    9       13.492441     13.492436   0.000000   0.000000
   10       16.970223     16.970216   0.000000   0.000000
   11       17.074618     17.074613   0.000000   0.000000
   12       19.252344     19.252339   0.000000   0.000000
   13       21.159494     21.159491   0.000000   0.000000
   14       24.380908     24.380900   0.000000   0.000000
   15       25.886172     25.886163   0.000000   0.000000
   16       26.991513     26.991505   0.000000   0.000000
 
  0.3333333E+00  0.5555556E-01  0.3742002E-15  0.9259259E-02
    1       -9.186588     -9.186591   1.000000   1.000000
    2       -7.117819     -7.117823   1.000000   1.000000
    3       -2.366183     -2.366188   1.000000   1.000000
    4       -0.972754     -0.972759   1.000000   1.000000
    5        1.647238      1.647234   1.000000   1.000000
    6        2.205032      2.205025   1.000000   1.000000
    7        2.946872      2.946865   1.000000   1.000000
    8        7.866566      7.866559   1.000000   1.000000
    9       12.008706     12.008701   0.000000   0.000000
   10       15.640528     15.640521   0.000000   0.000000
   11       16.800900     16.800896   0.000000   0.000000
   12       19.328777     19.328773   0.000000   0.000000
   13       21.917252     21.917249   0.000000   0.000000
   14       25.127378     25.127371   0.000000   0.000000
   15       27.219927     27.219923   0.000000   0.000000
   16       27.903554     27.903544   0.000000   0.000000
 
  0.3888889E+00  0.5555556E-01  0.3742002E-15  0.9259259E-02
    1       -8.094359     -8.094362   1.000000   1.000000
    2       -6.138562     -6.138566   1.000000   1.000000
    3       -3.917333     -3.917337   1.000000   1.000000
    4       -2.382322     -2.382327   1.000000   1.000000
    5        1.881459      1.881452   1.000000   1.000000
    6        2.640933      2.640926   1.000000   1.000000
    7        2.879168      2.879164   1.000000   1.000000
    8        7.564776      7.564770   1.000000   1.000000
    9       11.498259     11.498254   0.000000   0.000000
   10       14.348033     14.348026   0.000000   0.000000
   11       16.605022     16.605019   0.000000   0.000000
   12       19.351422     19.351418   0.000000   0.000000
   13       22.776566     22.776563   0.000000   0.000000
   14       25.065556     25.065550   0.000000   0.000000
   15       26.611830     26.611826   0.000000   0.000000
   16       28.543817     28.543809   0.000000   0.000000
 
  0.4444444E+00  0.5555556E-01  0.3742002E-15  0.9259259E-02
    1       -6.894737     -6.894739   1.000000   1.000000
    2       -5.543699     -5.543706   1.000000   1.000000
    3       -4.846808     -4.846810   1.000000   1.000000
    4       -3.702978     -3.702983   1.000000   1.000000
    5        1.717642      1.717636   1.000000   1.000000
    6        2.485034      2.485027   1.000000   1.000000
    7        4.011127      4.011124   1.000000   1.000000
    8        6.638539      6.638532   1.000000   1.000000
    9       12.038219     12.038215   0.000000   0.000000
   10       13.157092     13.157085   0.000000   0.000000
   11       16.503584     16.503581   0.000000   0.000000
   12       19.354960     19.354956   0.000000   0.000000
   13       23.671265     23.671261   0.000000   0.000000
   14       24.493059     24.493054   0.000000   0.000000
   15       26.300022     26.300019   0.000000   0.000000
   16       28.391875     28.391867   0.000000   0.000000
 
  0.1111111E+00  0.1111111E+00  0.3742002E-15  0.4629630E-02
    1      -11.666227    -11.666230   1.000000   1.000000
    2       -9.364193     -9.364196   1.000000   1.000000
    3       -1.312591     -1.312594   1.000000   1.000000
    4        2.985714      2.985708   1.000000   1.000000
    5        3.381310      3.381302   1.000000   1.000000
    6        4.138099      4.138093   1.000000   1.000000
    7        4.424877      4.424869   1.000000   1.000000
    8        6.168906      6.168900   1.000000   1.000000
    9       17.446570     17.446563   0.000000   0.000000
   10       18.396233     18.396226   0.000000   0.000000
   11       18.694837     18.694831   0.000000   0.000000
   12       19.732435     19.732427   0.000000   0.000000
   13       19.954964     19.954964   0.000000   0.000000
   14       20.769022     20.769012   0.000000   0.000000
   15       21.362128     21.362121   0.000000   0.000000
   16       25.161337     25.161330   0.000000   0.000000
 
  0.1666667E+00  0.1111111E+00  0.3742002E-15  0.9259259E-02
    1      -11.100452    -11.100455   1.000000   1.000000
    2       -8.851135     -8.851139   1.000000   1.000000
    3       -0.627763     -0.627767   1.000000   1.000000
    4        1.675231      1.675226   1.000000   1.000000
    5        2.335585      2.335578   1.000000   1.000000
    6        3.188816      3.188810   1.000000   1.000000
    7        3.671995      3.671988   1.000000   1.000000
    8        6.686393      6.686387   1.000000   1.000000
    9       15.902314     15.902307   0.000000   0.000000
   10       18.419551     18.419544   0.000000   0.000000
   11       18.420263     18.420255   0.000000   0.000000
   12       19.272824     19.272818   0.000000   0.000000
   13       20.516391     20.516391   0.000000   0.000000
   14       21.620777     21.620768   0.000000   0.000000
   15       22.575073     22.575066   0.000000   0.000000
   16       26.402936     26.402928   0.000000   0.000000
 
  0.2222222E+00  0.1111111E+00  0.3742002E-15  0.9259259E-02
    1      -10.378022    -10.378025   1.000000   1.000000
    2       -8.196401     -8.196405   1.000000   1.000000
    3        0.140645      0.140640   1.000000   1.000000
    4        0.241897      0.241894   1.000000   1.000000
    5        1.147498      1.147492   1.000000   1.000000
    6        2.329280      2.329273   1.000000   1.000000
    7        3.036697      3.036690   1.000000   1.000000
    8        7.293824      7.293818   1.000000   1.000000
    9       14.192885     14.192880   0.000000   0.000000
   10       17.102251     17.102244   0.000000   0.000000
   11       18.189431     18.189425   0.000000   0.000000
   12       19.814622     19.814617   0.000000   0.000000
   13       21.095343     21.095340   0.000000   0.000000
   14       22.648729     22.648722   0.000000   0.000000
   15       24.195644     24.195636   0.000000   0.000000
   16       27.475949     27.475945   0.000000   0.000000
 
  0.2777778E+00  0.1111111E+00  0.3742002E-15  0.9259259E-02
    1       -9.503332     -9.503335   1.000000   1.000000
    2       -7.404456     -7.404460   1.000000   1.000000
    3       -1.454248     -1.454252   1.000000   1.000000
    4       -0.202694     -0.202700   1.000000   1.000000
    5        1.283069      1.283065   1.000000   1.000000
    6        1.703941      1.703935   1.000000   1.000000
    7        2.519641      2.519634   1.000000   1.000000
    8        7.874829      7.874822   1.000000   1.000000
    9       12.547471     12.547466   0.000000   0.000000
   10       15.829589     15.829582   0.000000   0.000000
   11       17.918200     17.918195   0.000000   0.000000
   12       20.138751     20.138747   0.000000   0.000000
   13       21.713556     21.713553   0.000000   0.000000
   14       23.741314     23.741306   0.000000   0.000000
   15       26.033001     26.032992   0.000000   0.000000
   16       26.366736     26.366733   0.000000   0.000000
 
  0.3333333E+00  0.1111111E+00  0.3742002E-15  0.9259259E-02
    1       -8.483538     -8.483541   1.000000   1.000000
    2       -6.484977     -6.484981   1.000000   1.000000
    3       -3.022266     -3.022271   1.000000   1.000000
    4       -1.588400     -1.588405   1.000000   1.000000
    5        1.272908      1.272902   1.000000   1.000000
    6        2.138453      2.138447   1.000000   1.000000
    7        2.466410      2.466406   1.000000   1.000000
    8        8.041419      8.041412   1.000000   1.000000
    9       11.462277     11.462272   0.000000   0.000000
   10       14.603291     14.603284   0.000000   0.000000
   11       17.688538     17.688533   0.000000   0.000000
   12       20.272247     20.272243   0.000000   0.000000
   13       22.462643     22.462639   0.000000   0.000000
   14       24.453630     24.453624   0.000000   0.000000
   15       25.516568     25.516564   0.000000   0.000000
   16       27.804835     27.804827   0.000000   0.000000
 
  0.3888889E+00  0.1111111E+00  0.3742002E-15  0.9259259E-02
    1       -7.334476     -7.334479   1.000000   1.000000
    2       -5.492305     -5.492310   1.000000   1.000000
    3       -4.463003     -4.463006   1.000000   1.000000
    4       -2.931013     -2.931018   1.000000   1.000000
    5        1.016664      1.016658   1.000000   1.000000
    6        1.905273      1.905267   1.000000   1.000000
    7        3.698922      3.698919   1.000000   1.000000
    8        7.312125      7.312118   1.000000   1.000000
    9       11.542013     11.542007   0.000000   0.000000
   10       13.432395     13.432389   0.000000   0.000000
   11       17.539206     17.539201   0.000000   0.000000
   12       20.313191     20.313186   0.000000   0.000000
   13       23.278478     23.278474   0.000000   0.000000
   14       24.513041     24.513035   0.000000   0.000000
   15       24.982083     24.982080   0.000000   0.000000
   16       27.521619     27.521611   0.000000   0.000000
 
  0.4444444E+00  0.1111111E+00  0.3742002E-15  0.4629630E-02
    1       -6.290570     -6.290570   1.000000   1.000000
    2       -5.784549     -5.784558   1.000000   1.000000
    3       -4.280444     -4.280442   1.000000   1.000000
    4       -4.083759     -4.083768   1.000000   1.000000
    5        0.931381      0.931375   1.000000   1.000000
    6        1.826842      1.826835   1.000000   1.000000
    7        4.454508      4.454505   1.000000   1.000000
    8        6.612349      6.612342   1.000000   1.000000
    9       12.303597     12.303589   0.000000   0.000000
   10       12.417083     12.417079   0.000000   0.000000
   11       17.488106     17.488102   0.000000   0.000000
   12       20.321299     20.321295   0.000000   0.000000
   13       23.990183     23.990178   0.000000   0.000000
   14       24.071848     24.071843   0.000000   0.000000
   15       24.799767     24.799764   0.000000   0.000000
   16       27.426494     27.426487   0.000000   0.000000
 
  0.1666667E+00  0.1666667E+00  0.3742002E-15  0.4629630E-02
    1      -10.458154    -10.458157   1.000000   1.000000
    2       -8.269193     -8.269197   1.000000   1.000000
    3        0.146758      0.146754   1.000000   1.000000
    4        0.735156      0.735151   1.000000   1.000000
    5        1.234757      1.234750   1.000000   1.000000
    6        2.292328      2.292323   1.000000   1.000000
    7        2.642833      2.642826   1.000000   1.000000
    8        7.244132      7.244125   1.000000   1.000000
    9       14.503153     14.503147   0.000000   0.000000
   10       17.074588     17.074582   0.000000   0.000000
   11       19.313158     19.313151   0.000000   0.000000
   12       19.724561     19.724556   0.000000   0.000000
   13       21.009546     21.009546   0.000000   0.000000
   14       22.239823     22.239811   0.000000   0.000000
   15       23.042951     23.042947   0.000000   0.000000
   16       27.323650     27.323646   0.000000   0.000000
 
  0.2222222E+00  0.1666667E+00  0.3742002E-15  0.9259259E-02
    1       -9.662404     -9.662407   1.000000   1.000000
    2       -7.548723     -7.548727   1.000000   1.000000
    3       -0.573110     -0.573114   1.000000   1.000000
    4        0.253516      0.253510   1.000000   1.000000
    5        1.099315      1.099312   1.000000   1.000000
    6        1.284226      1.284221   1.000000   1.000000
    7        1.902200      1.902193   1.000000   1.000000
    8        7.859312      7.859305   1.000000   1.000000
    9       12.981361     12.981355   0.000000   0.000000
   10       15.787445     15.787439   0.000000   0.000000
   11       19.397938     19.397932   0.000000   0.000000
   12       20.624028     20.624023   0.000000   0.000000
   13       21.703135     21.703134   0.000000   0.000000
   14       22.711524     22.711515   0.000000   0.000000
   15       24.231777     24.231771   0.000000   0.000000
   16       26.067468     26.067464   0.000000   0.000000
 
  0.2777778E+00  0.1666667E+00  0.3742002E-15  0.9259259E-02
    1       -8.719119     -8.719123   1.000000   1.000000
    2       -6.697009     -6.697013   1.000000   1.000000
    3       -2.062977     -2.062981   1.000000   1.000000
    4       -0.846997     -0.847002   1.000000   1.000000
    5        0.516757      0.516751   1.000000   1.000000
    6        1.410120      1.410113   1.000000   1.000000
    7        2.210950      2.210947   1.000000   1.000000
    8        8.347471      8.347464   1.000000   1.000000
    9       11.582050     11.582044   0.000000   0.000000
   10       14.622898     14.622892   0.000000   0.000000
   11       19.201836     19.201831   0.000000   0.000000
   12       21.355390     21.355385   0.000000   0.000000
   13       22.410402     22.410399   0.000000   0.000000
   14       23.265830     23.265822   0.000000   0.000000
   15       25.031763     25.031759   0.000000   0.000000
   16       25.954960     25.954952   0.000000   0.000000
 
  0.3333333E+00  0.1666667E+00  0.3742002E-15  0.9259259E-02
    1       -7.639385     -7.639389   1.000000   1.000000
    2       -5.733390     -5.733394   1.000000   1.000000
    3       -3.539099     -3.539104   1.000000   1.000000
    4       -2.102931     -2.102935   1.000000   1.000000
    5        0.088336      0.088330   1.000000   1.000000
    6        1.088658      1.088651   1.000000   1.000000
    7        3.433534      3.433530   1.000000   1.000000
    8        8.113234      8.113227   1.000000   1.000000
    9       10.998735     10.998729   0.000000   0.000000
   10       13.572066     13.572060   0.000000   0.000000
   11       19.019278     19.019273   0.000000   0.000000
   12       21.682418     21.682413   0.000000   0.000000
   13       23.041145     23.041141   0.000000   0.000000
   14       23.900039     23.900033   0.000000   0.000000
   15       24.277872     24.277868   0.000000   0.000000
   16       26.527371     26.527364   0.000000   0.000000
 
  0.3888889E+00  0.1666667E+00  0.3742002E-15  0.9259259E-02
    1       -6.460610     -6.460612   1.000000   1.000000
    2       -5.141198     -5.141205   1.000000   1.000000
    3       -4.442857     -4.442858   1.000000   1.000000
    4       -3.351504     -3.351509   1.000000   1.000000
    5       -0.107412     -0.107417   1.000000   1.000000
    6        0.928298      0.928292   1.000000   1.000000
    7        4.561921      4.561918   1.000000   1.000000
    8        7.163650      7.163643   1.000000   1.000000
    9       11.375815     11.375808   0.000000   0.000000
   10       12.695073     12.695069   0.000000   0.000000
   11       18.917866     18.917861   0.000000   0.000000
   12       21.768854     21.768849   0.000000   0.000000
   13       23.654404     23.654399   0.000000   0.000000
   14       23.878303     23.878300   0.000000   0.000000
   15       24.058894     24.058888   0.000000   0.000000
   16       26.278672     26.278665   0.000000   0.000000
 
  0.2222222E+00  0.2222222E+00  0.3742002E-15  0.4629630E-02