       N       E                     dE             d eps       ncg     rms          rms(c)
DAV:   1    -0.309809205783E+03   -0.30981E+03   -0.12067E+04 10632   0.828E+02
DAV:   2    -0.373415336479E+03   -0.63606E+02   -0.57994E+02 10248   0.215E+02
DAV:   3    -0.376253428409E+03   -0.28381E+01   -0.28131E+01  9000   0.444E+01
DAV:   4    -0.376360508406E+03   -0.10708E+00   -0.10705E+00 10296   0.823E+00
DAV:   5    -0.376362043256E+03   -0.15348E-02   -0.15350E-02  9184   0.837E-01    0.496E+01
DAV:   6    -0.177896888841E+03    0.19847E+03   -0.48649E+01  7104   0.452E+01    0.296E+01
DAV:   7    -0.380579364249E+02    0.13984E+03   -0.20988E+02  9152   0.774E+01    0.104E+01
DAV:   8    -0.380100700183E+02    0.47866E-01   -0.71507E+00  9200   0.165E+01    0.426E+00
DAV:   9    -0.368384570266E+02    0.11716E+01   -0.19848E+00  9160   0.854E+00    0.109E+00
DAV:  10    -0.368630312341E+02   -0.24574E-01   -0.15120E-01  7672   0.306E+00    0.445E-01
DAV:  11    -0.368876228768E+02   -0.24592E-01   -0.79248E-02  7360   0.222E+00    0.344E-01
DAV:  12    -0.369112402149E+02   -0.23617E-01   -0.11879E-02  7368   0.102E+00    0.158E-01
DAV:  13    -0.369114006627E+02   -0.16045E-03   -0.32405E-03  8080   0.415E-01    0.430E-02
DAV:  14    -0.369116144769E+02   -0.21381E-03   -0.38805E-04  8168   0.154E-01    0.240E-02
DAV:  15    -0.369116488888E+02   -0.34412E-04   -0.25859E-05  8104   0.429E-02    0.164E-02
DAV:  16    -0.369116812692E+02   -0.32380E-04   -0.31780E-05  7464   0.436E-02    0.361E-03
DAV:  17    -0.369116840100E+02   -0.27408E-05   -0.52861E-06  8352   0.145E-02    0.165E-03
DAV:  18    -0.369116842080E+02   -0.19801E-06   -0.32162E-07  6104   0.467E-03
   1 F= -.17654721E+02 E0= -.17654721E+02  d E =-.176547E+02  mag=     0.0000
       N       E                     dE             d eps       ncg     rms          rms(c)
DAV:   1    -0.369109840394E+02    0.69997E-03   -0.24384E-01  7928   0.381E+00    0.405E-01
DAV:   2    -0.369067013537E+02    0.42827E-02   -0.57261E-03  8968   0.477E-01    0.212E-01
DAV:   3    -0.369051320483E+02    0.15693E-02   -0.35141E-03  8488   0.353E-01    0.183E-02
DAV:   4    -0.369051374569E+02   -0.54087E-05   -0.76407E-05  8432   0.570E-02    0.911E-03
DAV:   5    -0.369051387172E+02   -0.12603E-05   -0.31135E-06  7712   0.156E-02    0.926E-04
DAV:   6    -0.369051387412E+02   -0.23964E-07   -0.11337E-07  6760   0.267E-03
   2 F= -.18055895E+02 E0= -.18055895E+02  d E =-.401174E+00  mag=     0.0000
       N       E                     dE             d eps       ncg     rms          rms(c)
DAV:   1    -0.367501944451E+02    0.15494E+00   -0.22802E+00  7928   0.119E+01    0.124E+00
DAV:   2    -0.367104117255E+02    0.39783E-01   -0.55567E-02  8880   0.150E+00    0.650E-01
DAV:   3    -0.366958642059E+02    0.14548E-01   -0.32240E-02  8320   0.109E+00    0.573E-02
DAV:   4    -0.366958931183E+02   -0.28912E-04   -0.74437E-04  8240   0.179E-01    0.288E-02
DAV:   5    -0.366958887536E+02    0.43647E-05   -0.28098E-05  7904   0.480E-02    0.279E-03
DAV:   6    -0.366958893113E+02   -0.55763E-06   -0.96860E-07  8024   0.747E-03
   3 F= -.19035193E+02 E0= -.19035193E+02  d E =-.138047E+01  mag=     0.0000
       N       E                     dE             d eps       ncg     rms          rms(c)
DAV:   1    -0.355074614477E+02    0.11884E+01   -0.98330E+00  7808   0.260E+01    0.259E+00
DAV:   2    -0.353377841202E+02    0.16968E+00   -0.25330E-01  8776   0.330E+00    0.136E+00
DAV:   3    -0.352760868798E+02    0.61697E-01   -0.13371E-01  8080   0.231E+00    0.126E-01
DAV:   4    -0.352761324343E+02   -0.45554E-04   -0.35441E-03  8600   0.392E-01    0.641E-02
DAV:   5    -0.352760733748E+02    0.59060E-04   -0.11825E-04  7640   0.103E-01    0.618E-03
DAV:   6    -0.352760754767E+02   -0.21019E-05   -0.47165E-06  9160   0.168E-02    0.370E-03
DAV:   7    -0.352760762701E+02   -0.79346E-06   -0.83787E-07  6656   0.702E-03
   4 F= -.19840465E+02 E0= -.19840465E+02  d E =-.218574E+01  mag=     0.0000
       N       E                     dE             d eps       ncg     rms          rms(c)
DAV:   1    -0.354335919254E+02   -0.15752E+00   -0.25558E+00  7216   0.111E+01    0.117E+00
DAV:   2    -0.353718923358E+02    0.61700E-01   -0.78518E-02  7792   0.185E+00    0.647E-01
DAV:   3    -0.353460080608E+02    0.25884E-01   -0.62843E-02  8288   0.160E+00    0.112E-01
DAV:   4    -0.353460836157E+02   -0.75555E-04   -0.27033E-03  8240   0.329E-01    0.734E-02
DAV:   5    -0.353460477965E+02    0.35819E-04   -0.22832E-04  7864   0.123E-01    0.874E-03
DAV:   6    -0.353460527899E+02   -0.49934E-05   -0.64244E-06  9160   0.185E-02    0.645E-03
DAV:   7    -0.353460570455E+02   -0.42556E-05   -0.23486E-06  7600   0.105E-02    0.219E-03
DAV:   8    -0.353460579313E+02   -0.88584E-06   -0.39757E-07  6480   0.491E-03
   5 F= -.20206349E+02 E0= -.20206349E+02  d E =-.365884E+00  mag=     0.0000
       N       E                     dE             d eps       ncg     rms          rms(c)
DAV:   1    -0.363260235639E+02   -0.97997E+00   -0.24638E+01  7152   0.354E+01    0.369E+00
DAV:   2    -0.357545130057E+02    0.57151E+00   -0.76886E-01  7808   0.588E+00    0.201E+00
DAV:   3    -0.355228304023E+02    0.23168E+00   -0.51978E-01  8032   0.474E+00    0.297E-01
DAV:   4    -0.355235441492E+02   -0.71375E-03   -0.24342E-02  8144   0.985E-01    0.156E-01
DAV:   5    -0.355232467864E+02    0.29736E-03   -0.12605E-03  8112   0.292E-01    0.208E-02
DAV:   6    -0.355232480533E+02   -0.12669E-05   -0.36541E-05  9000   0.440E-02    0.125E-02
DAV:   7    -0.355232641995E+02   -0.16146E-04   -0.11238E-05  7440   0.227E-02    0.657E-03
DAV:   8    -0.355232692639E+02   -0.50644E-05   -0.35349E-06  7896   0.158E-02    0.934E-04
DAV:   9    -0.355232693282E+02   -0.64330E-07   -0.92548E-08  4720   0.210E-03
   6 F= -.21284154E+02 E0= -.21284154E+02  d E =-.144369E+01  mag=     0.0000
       N       E                     dE             d eps       ncg     rms          rms(c)
DAV:   1    -0.388469013903E+02   -0.33236E+01   -0.11588E+02  7104   0.816E+01    0.820E+00
DAV:   2    -0.365616685931E+02    0.22852E+01   -0.38900E+00  8048   0.139E+01    0.447E+00
DAV:   3    -0.355934841165E+02    0.96818E+00   -0.19077E+00  8416   0.964E+00    0.551E-01
DAV:   4    -0.355943843323E+02   -0.90022E-03   -0.93384E-02  8528   0.198E+00    0.243E-01
DAV:   5    -0.355926650546E+02    0.17193E-02   -0.31739E-03  8624   0.458E-01    0.403E-02
DAV:   6    -0.355926325026E+02    0.32552E-04   -0.18771E-04  8600   0.959E-02    0.214E-02
DAV:   7    -0.355926543929E+02   -0.21890E-04   -0.27742E-05  8000   0.431E-02    0.753E-03
DAV:   8    -0.355926536363E+02    0.75659E-06   -0.22442E-06  8224   0.120E-02
   7 F= -.23213196E+02 E0= -.23213196E+02  d E =-.337273E+01  mag=    -0.0000
       N       E                     dE             d eps       ncg     rms          rms(c)
DAV:   1    -0.323192027451E+02    0.32735E+01   -0.72746E+02  8272   0.245E+02    0.193E+01
DAV:   2    -0.331177148654E+02   -0.79851E+00   -0.67057E+01  9664   0.516E+01    0.125E+01
DAV:   3    -0.294921348756E+02    0.36256E+01   -0.12342E+01  8592   0.254E+01    0.392E+00
DAV:   4    -0.290497351870E+02    0.44240E+00   -0.11907E+00  8224   0.813E+00    0.994E-01
DAV:   5    -0.290239078147E+02    0.25827E-01   -0.33892E-02  8608   0.149E+00    0.218E-01
DAV:   6    -0.290224776039E+02    0.14302E-02   -0.34439E-03  8576   0.439E-01    0.384E-02
DAV:   7    -0.290225834870E+02   -0.10588E-03   -0.32281E-04  8560   0.131E-01    0.496E-02
DAV:   8    -0.290225017682E+02    0.81719E-04   -0.74705E-05  8720   0.641E-02    0.824E-03
DAV:   9    -0.290224983363E+02    0.34319E-05   -0.50193E-06  9144   0.173E-02    0.209E-03
DAV:  10    -0.290224980651E+02    0.27120E-06   -0.95823E-08  4592   0.297E-03
   8 F= -.20600295E+02 E0= -.20600295E+02  d E =-.759830E+00  mag=    -0.0000
       N       E                     dE             d eps       ncg     rms          rms(c)
DAV:   1    -0.493585480129E+02   -0.20336E+02   -0.47674E+02  7136   0.139E+02    0.146E+01
DAV:   2    -0.401546192064E+02    0.92039E+01   -0.18060E+01 10096   0.300E+01    0.894E+00
DAV:   3    -0.354248983265E+02    0.47297E+01   -0.12771E+01  9104   0.232E+01    0.237E+00
DAV:   4    -0.353073915369E+02    0.11751E+00   -0.89012E-01  8288   0.567E+00    0.115E+00
DAV:   5    -0.352903587490E+02    0.17033E-01   -0.21824E-02  8944   0.114E+00    0.643E-01
DAV:   6    -0.352809490485E+02    0.94097E-02   -0.26514E-02  8520   0.123E+00    0.883E-02
DAV:   7    -0.352810477544E+02   -0.98706E-04   -0.11679E-03  8920   0.248E-01    0.698E-02
DAV:   8    -0.352809819684E+02    0.65786E-04   -0.20948E-05  8360   0.341E-02    0.492E-02
DAV:   9    -0.352809139516E+02    0.68017E-04   -0.11975E-04  8552   0.792E-02    0.129E-03
DAV:  10    -0.352809148422E+02   -0.89065E-06   -0.47466E-06  8808   0.159E-02
   9 F= -.23862726E+02 E0= -.23862726E+02  d E =-.402226E+01  mag=     0.0000
       N       E                     dE             d eps       ncg     rms          rms(c)
DAV:   1    -0.353679185453E+02   -0.87005E-01   -0.33517E+01  7808   0.438E+01    0.441E+00
DAV:   2    -0.348084112774E+02    0.55951E+00   -0.10818E+00  9264   0.736E+00    0.248E+00
DAV:   3    -0.345427965569E+02    0.26561E+00   -0.56632E-01  8992   0.526E+00    0.325E-01
DAV:   4    -0.345412827908E+02    0.15138E-02   -0.22294E-02  8416   0.106E+00    0.129E-01
DAV:   5    -0.345407282630E+02    0.55453E-03   -0.97609E-04  9136   0.251E-01    0.231E-02
DAV:   6    -0.345407168683E+02    0.11395E-04   -0.35020E-05  8464   0.415E-02    0.905E-03
DAV:   7    -0.345407199491E+02   -0.30809E-05   -0.21688E-06  8880   0.132E-02    0.195E-03
DAV:   8    -0.345407204783E+02   -0.52914E-06   -0.21048E-07  4264   0.344E-03
  10 F= -.24011145E+02 E0= -.24011145E+02  d E =-.417068E+01  mag=    -0.0000
       N       E                     dE             d eps       ncg     rms          rms(c)
DAV:   1    -0.348458786485E+02   -0.30516E+00   -0.22677E+00  7904   0.108E+01    0.113E+00
DAV:   2    -0.348024489604E+02    0.43430E-01   -0.61460E-02  9272   0.175E+00    0.628E-01
DAV:   3    -0.347838410822E+02    0.18608E-01   -0.38418E-02  9104   0.135E+00    0.794E-02
DAV:   4    -0.347837884983E+02    0.52584E-04   -0.12565E-03  8328   0.248E-01    0.484E-02
DAV:   5    -0.347837186931E+02    0.69805E-04   -0.90053E-05  8944   0.756E-02    0.679E-03
DAV:   6    -0.347837177416E+02    0.95145E-06   -0.49603E-06  8656   0.170E-02
  11 F= -.24030139E+02 E0= -.24030139E+02  d E =-.418967E+01  mag=    -0.0000
       N       E                     dE             d eps       ncg     rms          rms(c)
DAV:   1    -0.347540736435E+02    0.29645E-01   -0.42199E-02  7936   0.149E+00    0.155E-01
DAV:   2    -0.347532599007E+02    0.81374E-03   -0.11270E-03  9200   0.240E-01    0.862E-02
DAV:   3    -0.347528967719E+02    0.36313E-03   -0.70807E-04  9136   0.184E-01    0.108E-02
DAV:   4    -0.347528975237E+02   -0.75187E-06   -0.22898E-05  8368   0.338E-02    0.600E-03
DAV:   5    -0.347528976123E+02   -0.88594E-07   -0.14214E-06  6840   0.983E-03
  12 F= -.24030115E+02 E0= -.24030115E+02  d E =-.418965E+01  mag=     0.0000
       N       E                     dE             d eps       ncg     rms          rms(c)
DAV:   1    -0.351891271368E+02   -0.43623E+00   -0.59798E-01  8672   0.668E+00    0.579E-01
DAV:   2    -0.351840254277E+02    0.51017E-02   -0.97863E-03  8688   0.694E-01    0.327E-01
DAV:   3    -0.351814967907E+02    0.25286E-02   -0.32093E-03  8624   0.380E-01    0.270E-02
DAV:   4    -0.351814624849E+02    0.34306E-04   -0.84415E-05  8432   0.655E-02    0.119E-02
DAV:   5    -0.351814548175E+02    0.76674E-05   -0.33595E-06  9168   0.153E-02    0.238E-03
DAV:   6    -0.351814544961E+02    0.32143E-06   -0.27353E-07  4512   0.423E-03
  13 F= -.24065674E+02 E0= -.24065674E+02  d E =-.355586E-01  mag=     0.0000
       N       E                     dE             d eps       ncg     rms          rms(c)
DAV:   1    -0.350842803177E+02    0.97174E-01   -0.40395E-02  8704   0.174E+00    0.151E-01
DAV:   2    -0.350839327814E+02    0.34754E-03   -0.70922E-04  8608   0.184E-01    0.851E-02
DAV:   3    -0.350837624998E+02    0.17028E-03   -0.20839E-04  8576   0.974E-02    0.724E-03
DAV:   4    -0.350837637267E+02   -0.12269E-05   -0.53314E-06  8400   0.166E-02    0.288E-03
DAV:   5    -0.350837640041E+02   -0.27742E-06   -0.19823E-07  4512   0.378E-03
  14 F= -.24070378E+02 E0= -.24070378E+02  d E =-.402628E-01  mag=    -0.0000
