PROCAR lm decomposed
# of k-points:  111         # of bands:   16         # of ions:    4

 k-point     1 :    0.00000000 0.00000000 0.00000000     weight = 0.00077160

band     1 # energy  -12.64321666 # occ.  1.00000000
 
ion      s     py     pz     px    dxy    dyz    dz2    dxz  x2-y2    tot
    1  0.160  0.000  0.000  0.000  0.000  0.000  0.000  0.000  0.000  0.160
    2  0.160  0.000  0.000  0.000  0.000  0.000  0.000  0.000  0.000  0.160
    3  0.157  0.000  0.000  0.000  0.000  0.000  0.000  0.000  0.000  0.157
    4  0.157  0.000  0.000  0.000  0.000  0.000  0.000  0.000  0.000  0.157
tot    0.634  0.000  0.000  0.000  0.000  0.000  0.000  0.000  0.000  0.634
 
band     2 # energy  -10.25024041 # occ.  1.00000000
 
ion      s     py     pz     px    dxy    dyz    dz2    dxz  x2-y2    tot
    1  0.184  0.000  0.000  0.000  0.000  0.000  0.000  0.000  0.000  0.184
    2  0.184  0.000  0.000  0.000  0.000  0.000  0.000  0.000  0.000  0.184
    3  0.184  0.000  0.000  0.000  0.000  0.000  0.000  0.000  0.000  0.184
    4  0.184  0.000  0.000  0.000  0.000  0.000  0.000  0.000  0.000  0.184
tot    0.737  0.000  0.000  0.000  0.000  0.000  0.000  0.000  0.000  0.737
 
band     3 # energy   -2.50027259 # occ.  1.00000000
 
ion      s     py     pz     px    dxy    dyz    dz2    dxz  x2-y2    tot
    1  0.000  0.000  0.102  0.000  0.000  0.000  0.000  0.000  0.000  0.102
    2  0.000  0.000  0.102  0.000  0.000  0.000  0.000  0.000  0.000  0.102
    3  0.000  0.000  0.096  0.000  0.000  0.000  0.000  0.000  0.000  0.096
    4  0.000  0.000  0.096  0.000  0.000  0.000  0.000  0.000  0.000  0.096
tot    0.000  0.000  0.397  0.000  0.000  0.000  0.000  0.000  0.000  0.397
 
band     4 # energy    5.22268241 # occ.  1.00000000
 
ion      s     py     pz     px    dxy    dyz    dz2    dxz  x2-y2    tot
    1  0.000  0.000  0.160  0.000  0.000  0.000  0.000  0.000  0.000  0.160
    2  0.000  0.000  0.160  0.000  0.000  0.000  0.000  0.000  0.000  0.160
    3  0.000  0.000  0.167  0.000  0.000  0.000  0.000  0.000  0.000  0.167
    4  0.000  0.000  0.167  0.000  0.000  0.000  0.000  0.000  0.000  0.167
tot    0.000  0.000  0.653  0.000  0.000  0.000  0.000  0.000  0.000  0.653
 
band     5 # energy    5.96564371 # occ.  1.00000000
 
ion      s     py     pz     px    dxy    dyz    dz2    dxz  x2-y2    tot
    1  0.000  0.055  0.000  0.169  0.000  0.000  0.000  0.000  0.000  0.224
    2  0.000  0.055  0.000  0.169  0.000  0.000  0.000  0.000  0.000  0.224
    3  0.000  0.051  0.000  0.157  0.000  0.000  0.000  0.000  0.000  0.208
    4  0.000  0.051  0.000  0.157  0.000  0.000  0.000  0.000  0.000  0.208
tot    0.000  0.212  0.000  0.653  0.000  0.000  0.000  0.000  0.000  0.865
 
band     6 # energy    5.96570407 # occ.  1.00000000
 
ion      s     py     pz     px    dxy    dyz    dz2    dxz  x2-y2    tot
    1  0.000  0.169  0.000  0.055  0.000  0.000  0.000  0.000  0.000  0.224
    2  0.000  0.169  0.000  0.055  0.000  0.000  0.000  0.000  0.000  0.224
    3  0.000  0.157  0.000  0.051  0.000  0.000  0.000  0.000  0.000  0.208
    4  0.000  0.157  0.000  0.051  0.000  0.000  0.000  0.000  0.000  0.208
tot    0.000  0.653  0.000  0.212  0.000  0.000  0.000  0.000  0.000  0.865
 
band     7 # energy    6.25559770 # occ.  1.00000000
 
ion      s     py     pz     px    dxy    dyz    dz2    dxz  x2-y2    tot
    1  0.000  0.052  0.000  0.163  0.000  0.000  0.000  0.000  0.000  0.215
    2  0.000  0.052  0.000  0.163  0.000  0.000  0.000  0.000  0.000  0.215
    3  0.000  0.055  0.000  0.170  0.000  0.000  0.000  0.000  0.000  0.224
    4  0.000  0.055  0.000  0.170  0.000  0.000  0.000  0.000  0.000  0.224
tot    0.000  0.214  0.000  0.665  0.000  0.000  0.000  0.000  0.000  0.879
 
band     8 # energy    6.25565619 # occ.  1.00000000
 
ion      s     py     pz     px    dxy    dyz    dz2    dxz  x2-y2    tot
    1  0.000  0.163  0.000  0.052  0.000  0.000  0.000  0.000  0.000  0.215
    2  0.000  0.163  0.000  0.052  0.000  0.000  0.000  0.000  0.000  0.215
    3  0.000  0.170  0.000  0.055  0.000  0.000  0.000  0.000  0.000  0.224
    4  0.000  0.170  0.000  0.055  0.000  0.000  0.000  0.000  0.000  0.224
tot    0.000  0.665  0.000  0.214  0.000  0.000  0.000  0.000  0.000  0.879
 
band     9 # energy   17.88274411 # occ.  0.00000000
 
ion      s     py     pz     px    dxy    dyz    dz2    dxz  x2-y2    tot
    1  0.000  0.118  0.000  0.023  0.000  0.000  0.000  0.000  0.000  0.140
    2  0.000  0.118  0.000  0.023  0.000  0.000  0.000  0.000  0.000  0.140
    3  0.000  0.097  0.000  0.019  0.000  0.000  0.000  0.000  0.000  0.116
    4  0.000  0.097  0.000  0.019  0.000  0.000  0.000  0.000  0.000  0.116
tot    0.000  0.429  0.000  0.083  0.000  0.000  0.000  0.000  0.000  0.512
 
band    10 # energy   17.88280583 # occ.  0.00000000
 
ion      s     py     pz     px    dxy    dyz    dz2    dxz  x2-y2    tot
    1  0.000  0.023  0.000  0.118  0.000  0.000  0.000  0.000  0.000  0.140
    2  0.000  0.023  0.000  0.118  0.000  0.000  0.000  0.000  0.000  0.140
    3  0.000  0.019  0.000  0.097  0.000  0.000  0.000  0.000  0.000  0.116
    4  0.000  0.019  0.000  0.097  0.000  0.000  0.000  0.000  0.000  0.116
tot    0.000  0.083  0.000  0.429  0.000  0.000  0.000  0.000  0.000  0.512
 
band    11 # energy   18.41886906 # occ.  0.00000000
 
ion      s     py     pz     px    dxy    dyz    dz2    dxz  x2-y2    tot
    1  0.000  0.098  0.000  0.020  0.000  0.000  0.000  0.000  0.000  0.118
    2  0.000  0.098  0.000  0.020  0.000  0.000  0.000  0.000  0.000  0.118
    3  0.000  0.124  0.000  0.025  0.000  0.000  0.000  0.000  0.000  0.149
    4  0.000  0.124  0.000  0.025  0.000  0.000  0.000  0.000  0.000  0.149
tot    0.000  0.444  0.000  0.091  0.000  0.000  0.000  0.000  0.000  0.536
 
band    12 # energy   18.41893682 # occ.  0.00000000
 
ion      s     py     pz     px    dxy    dyz    dz2    dxz  x2-y2    tot
    1  0.000  0.020  0.000  0.098  0.000  0.000  0.000  0.000  0.000  0.118
    2  0.000  0.020  0.000  0.098  0.000  0.000  0.000  0.000  0.000  0.118
    3  0.000  0.025  0.000  0.124  0.000  0.000  0.000  0.000  0.000  0.149
    4  0.000  0.025  0.000  0.124  0.000  0.000  0.000  0.000  0.000  0.149
tot    0.000  0.091  0.000  0.444  0.000  0.000  0.000  0.000  0.000  0.536
 
band    13 # energy   18.57860263 # occ.  0.00000000
 
ion      s     py     pz     px    dxy    dyz    dz2    dxz  x2-y2    tot
    1  0.035  0.000  0.000  0.000  0.000  0.000  0.000  0.000  0.000  0.035
    2  0.035  0.000  0.000  0.000  0.000  0.000  0.000  0.000  0.000  0.035
    3  0.044  0.000  0.000  0.000  0.000  0.000  0.000  0.000  0.000  0.044
    4  0.044  0.000  0.000  0.000  0.000  0.000  0.000  0.000  0.000  0.044
tot    0.158  0.000  0.000  0.000  0.000  0.000  0.000  0.000  0.000  0.158
 
band    14 # energy   20.88310019 # occ.  0.00000000
 
ion      s     py     pz     px    dxy    dyz    dz2    dxz  x2-y2    tot
    1  0.000  0.000  0.201  0.000  0.000  0.000  0.000  0.000  0.000  0.201
    2  0.000  0.000  0.201  0.000  0.000  0.000  0.000  0.000  0.000  0.201
    3  0.000  0.000  0.172  0.000  0.000  0.000  0.000  0.000  0.000  0.172
    4  0.000  0.000  0.172  0.000  0.000  0.000  0.000  0.000  0.000  0.172
tot    0.000  0.000  0.745  0.000  0.000  0.000  0.000  0.000  0.000  0.745
 
band    15 # energy   22.69469788 # occ.  0.00000000
 
ion      s     py     pz     px    dxy    dyz    dz2    dxz  x2-y2    tot
    1  0.000  0.000  0.205  0.000  0.000  0.000  0.000  0.000  0.000  0.205
    2  0.000  0.000  0.205  0.000  0.000  0.000  0.000  0.000  0.000  0.205
    3  0.000  0.000  0.203  0.000  0.000  0.000  0.000  0.000  0.000  0.203
    4  0.000  0.000  0.203  0.000  0.000  0.000  0.000  0.000  0.000  0.203
tot    0.000  0.000  0.814  0.000  0.000  0.000  0.000  0.000  0.000  0.814
 
band    16 # energy   23.13463967 # occ.  0.00000000
 
ion      s     py     pz     px    dxy    dyz    dz2    dxz  x2-y2    tot
    1  0.180  0.000  0.000  0.000  0.000  0.000  0.000  0.000  0.000  0.180
    2  0.180  0.000  0.000  0.000  0.000  0.000  0.000  0.000  0.000  0.180
    3  0.141  0.000  0.000  0.000  0.000  0.000  0.000  0.000  0.000  0.141
    4  0.141  0.000  0.000  0.000  0.000  0.000  0.000  0.000  0.000  0.141
tot    0.643  0.000  0.000  0.000  0.000  0.000  0.000  0.000  0.000  0.643
 

 k-point     2 :    0.05555556 0.00000000 0.00000000     weight = 0.00462963

band     1 # energy  -12.56149749 # occ.  1.00000000
 
ion      s     py     pz     px    dxy    dyz    dz2    dxz  x2-y2    tot
    1  0.159  0.000  0.000  0.001  0.000  0.000  0.000  0.000  0.000  0.160
    2  0.159  0.000  0.000  0.001  0.000  0.000  0.000  0.000  0.000  0.160
    3  0.156  0.000  0.000  0.001  0.000  0.000  0.000  0.000  0.000  0.157
    4  0.156  0.000  0.000  0.001  0.000  0.000  0.000  0.000  0.000  0.157
tot    0.631  0.001  0.000  0.002  0.000  0.000  0.000  0.000  0.000  0.634
 
band     2 # energy  -10.17607128 # occ.  1.00000000
 
ion      s     py     pz     px    dxy    dyz    dz2    dxz  x2-y2    tot
    1  0.184  0.000  0.000  0.001  0.000  0.000  0.000  0.000  0.000  0.185
    2  0.184  0.000  0.000  0.001  0.000  0.000  0.000  0.000  0.000  0.185
    3  0.183  0.000  0.000  0.001  0.000  0.000  0.000  0.000  0.000  0.184
    4  0.183  0.000  0.000  0.001  0.000  0.000  0.000  0.000  0.000  0.184
tot    0.734  0.001  0.000  0.003  0.000  0.000  0.000  0.000  0.000  0.738
 
band     3 # energy   -2.40068919 # occ.  1.00000000
 
ion      s     py     pz     px    dxy    dyz    dz2    dxz  x2-y2    tot
    1  0.000  0.000  0.102  0.000  0.000  0.000  0.000  0.000  0.000  0.102
    2  0.000  0.000  0.102  0.000  0.000  0.000  0.000  0.000  0.000  0.102
    3  0.000  0.000  0.096  0.000  0.000  0.000  0.000  0.000  0.000  0.096
    4  0.000  0.000  0.096  0.000  0.000  0.000  0.000  0.000  0.000  0.096
tot    0.000  0.000  0.397  0.000  0.000  0.000  0.000  0.000  0.000  0.397
 
band     4 # energy    5.30385714 # occ.  1.00000000
 
ion      s     py     pz     px    dxy    dyz    dz2    dxz  x2-y2    tot
    1  0.000  0.000  0.160  0.000  0.000  0.000  0.000  0.000  0.000  0.160
    2  0.000  0.000  0.160  0.000  0.000  0.000  0.000  0.000  0.000  0.160
    3  0.000  0.000  0.167  0.000  0.000  0.000  0.000  0.000  0.000  0.167
    4  0.000  0.000  0.167  0.000  0.000  0.000  0.000  0.000  0.000  0.167
tot    0.000  0.000  0.653  0.000  0.000  0.000  0.000  0.000  0.000  0.653
 
band     5 # energy    5.60890508 # occ.  1.00000000
 
ion      s     py     pz     px    dxy    dyz    dz2    dxz  x2-y2    tot
    1  0.004  0.054  0.000  0.162  0.000  0.000  0.000  0.000  0.000  0.220
    2  0.004  0.054  0.000  0.162  0.000  0.000  0.000  0.000  0.000  0.220
    3  0.004  0.051  0.000  0.153  0.000  0.000  0.000  0.000  0.000  0.208
    4  0.004  0.051  0.000  0.153  0.000  0.000  0.000  0.000  0.000  0.208
tot    0.017  0.210  0.000  0.629  0.000  0.000  0.000  0.000  0.000  0.856
 
band     6 # energy    5.75731930 # occ.  1.00000000
 
ion      s     py     pz     px    dxy    dyz    dz2    dxz  x2-y2    tot
    1  0.000  0.166  0.000  0.055  0.000  0.000  0.000  0.000  0.000  0.221
    2  0.000  0.166  0.000  0.055  0.000  0.000  0.000  0.000  0.000  0.221
    3  0.000  0.156  0.000  0.052  0.000  0.000  0.000  0.000  0.000  0.208
    4  0.000  0.156  0.000  0.052  0.000  0.000  0.000  0.000  0.000  0.208
tot    0.000  0.644  0.000  0.215  0.000  0.000  0.000  0.000  0.000  0.858
 
band     7 # energy    5.98121853 # occ.  1.00000000
 
ion      s     py     pz     px    dxy    dyz    dz2    dxz  x2-y2    tot
    1  0.004  0.053  0.000  0.159  0.000  0.000  0.000  0.000  0.000  0.216
    2  0.004  0.053  0.000  0.159  0.000  0.000  0.000  0.000  0.000  0.216
    3  0.004  0.055  0.000  0.164  0.000  0.000  0.000  0.000  0.000  0.222
    4  0.004  0.055  0.000  0.164  0.000  0.000  0.000  0.000  0.000  0.222
tot    0.016  0.215  0.000  0.646  0.000  0.000  0.000  0.000  0.000  0.876
 
band     8 # energy    6.10930732 # occ.  1.00000000
 
ion      s     py     pz     px    dxy    dyz    dz2    dxz  x2-y2    tot
    1  0.000  0.163  0.000  0.054  0.000  0.000  0.000  0.000  0.000  0.217
    2  0.000  0.163  0.000  0.054  0.000  0.000  0.000  0.000  0.000  0.217
    3  0.000  0.167  0.000  0.056  0.000  0.000  0.000  0.000  0.000  0.222
    4  0.000  0.167  0.000  0.056  0.000  0.000  0.000  0.000  0.000  0.222
tot    0.000  0.659  0.000  0.219  0.000  0.000  0.000  0.000  0.000  0.878
 
band     9 # energy   17.88870965 # occ.  0.00000000
 
ion      s     py     pz     px    dxy    dyz    dz2    dxz  x2-y2    tot
    1  0.001  0.034  0.000  0.101  0.000  0.000  0.000  0.000  0.000  0.137
    2  0.001  0.034  0.000  0.101  0.000  0.000  0.000  0.000  0.000  0.137
    3  0.004  0.027  0.000  0.082  0.000  0.000  0.000  0.000  0.000  0.114
    4  0.004  0.027  0.000  0.082  0.000  0.000  0.000  0.000  0.000  0.114
tot    0.011  0.123  0.000  0.368  0.000  0.000  0.000  0.000  0.000  0.501
 
band    10 # energy   18.23223795 # occ.  0.00000000
 
ion      s     py     pz     px    dxy    dyz    dz2    dxz  x2-y2    tot
    1  0.000  0.105  0.000  0.035  0.000  0.000  0.000  0.000  0.000  0.141
    2  0.000  0.105  0.000  0.035  0.000  0.000  0.000  0.000  0.000  0.141
    3  0.000  0.088  0.000  0.029  0.000  0.000  0.000  0.000  0.000  0.118
    4  0.000  0.088  0.000  0.029  0.000  0.000  0.000  0.000  0.000  0.118
tot    0.000  0.388  0.000  0.129  0.000  0.000  0.000  0.000  0.000  0.517
 
band    11 # energy   18.31859472 # occ.  0.00000000
 
ion      s     py     pz     px    dxy    dyz    dz2    dxz  x2-y2    tot
    1  0.005  0.021  0.000  0.062  0.000  0.000  0.000  0.000  0.000  0.087
    2  0.005  0.021  0.000  0.062  0.000  0.000  0.000  0.000  0.000  0.087
    3  0.008  0.027  0.000  0.080  0.000  0.000  0.000  0.000  0.000  0.114
    4  0.008  0.027  0.000  0.080  0.000  0.000  0.000  0.000  0.000  0.114
tot    0.025  0.094  0.000  0.283  0.000  0.000  0.000  0.000  0.000  0.403
 
band    12 # energy   18.78062346 # occ.  0.00000000
 
ion      s     py     pz     px    dxy    dyz    dz2    dxz  x2-y2    tot
    1  0.000  0.091  0.000  0.030  0.000  0.000  0.000  0.000  0.000  0.121
    2  0.000  0.091  0.000  0.030  0.000  0.000  0.000  0.000  0.000  0.121
    3  0.000  0.112  0.000  0.037  0.000  0.000  0.000  0.000  0.000  0.150
    4  0.000  0.112  0.000  0.037  0.000  0.000  0.000  0.000  0.000  0.150
tot    0.000  0.406  0.000  0.135  0.000  0.000  0.000  0.000  0.000  0.542
 
band    13 # energy   18.83725307 # occ.  0.00000000
 
ion      s     py     pz     px    dxy    dyz    dz2    dxz  x2-y2    tot
    1  0.036  0.008  0.000  0.024  0.000  0.000  0.000  0.000  0.000  0.068
    2  0.036  0.008  0.000  0.024  0.000  0.000  0.000  0.000  0.000  0.068
    3  0.036  0.010  0.000  0.031  0.000  0.000  0.000  0.000  0.000  0.077
    4  0.036  0.010  0.000  0.031  0.000  0.000  0.000  0.000  0.000  0.077
tot    0.143  0.037  0.000  0.110  0.000  0.000  0.000  0.000  0.000  0.290
 
band    14 # energy   20.53864248 # occ.  0.00000000
 
ion      s     py     pz     px    dxy    dyz    dz2    dxz  x2-y2    tot
    1  0.000  0.000  0.196  0.000  0.000  0.000  0.000  0.000  0.000  0.196
    2  0.000  0.000  0.196  0.000  0.000  0.000  0.000  0.000  0.000  0.196
    3  0.000  0.000  0.168  0.000  0.000  0.000  0.000  0.000  0.000  0.168
    4  0.000  0.000  0.168  0.000  0.000  0.000  0.000  0.000  0.000  0.168
tot    0.000  0.000  0.727  0.000  0.000  0.000  0.000  0.000  0.000  0.727
 
band    15 # energy   22.41069663 # occ.  0.00000000
 
ion      s     py     pz     px    dxy    dyz    dz2    dxz  x2-y2    tot
    1  0.000  0.000  0.201  0.000  0.000  0.000  0.000  0.000  0.000  0.201
    2  0.000  0.000  0.201  0.000  0.000  0.000  0.000  0.000  0.000  0.201
    3  0.000  0.000  0.199  0.000  0.000  0.000  0.000  0.000  0.000  0.199
    4  0.000  0.000  0.199  0.000  0.000  0.000  0.000  0.000  0.000  0.199
tot    0.000  0.000  0.800  0.000  0.000  0.000  0.000  0.000  0.000  0.800
 
band    16 # energy   23.27446722 # occ.  0.00000000
 
ion      s     py     pz     px    dxy    dyz    dz2    dxz  x2-y2    tot
    1  0.170  0.003  0.000  0.008  0.000  0.000  0.000  0.000  0.000  0.181
    2  0.170  0.003  0.000  0.008  0.000  0.000  0.000  0.000  0.000  0.181
    3  0.140  0.000  0.000  0.001  0.000  0.000  0.000  0.000  0.000  0.142
    4  0.140  0.000  0.000  0.001  0.000  0.000  0.000  0.000  0.000  0.142
tot    0.621  0.006  0.000  0.019  0.000  0.000  0.000  0.000  0.000  0.646
 

 k-point     3 :    0.11111111 0.00000000 0.00000000     weight = 0.00462963

band     1 # energy  -12.31657134 # occ.  1.00000000
 
ion      s     py     pz     px    dxy    dyz    dz2    dxz  x2-y2    tot
    1  0.157  0.001  0.000  0.002  0.000  0.000  0.000  0.000  0.000  0.160
    2  0.157  0.001  0.000  0.002  0.000  0.000  0.000  0.000  0.000  0.160
    3  0.155  0.001  0.000  0.002  0.000  0.000  0.000  0.000  0.000  0.158
    4  0.155  0.001  0.000  0.002  0.000  0.000  0.000  0.000  0.000  0.158
tot    0.624  0.003  0.000  0.010  0.000  0.000  0.000  0.000  0.000  0.637
 
band     2 # energy   -9.95404612 # occ.  1.00000000
 
ion      s     py     pz     px    dxy    dyz    dz2    dxz  x2-y2    tot
    1  0.181  0.001  0.000  0.003  0.000  0.000  0.000  0.000  0.000  0.185
    2  0.181  0.001  0.000  0.003  0.000  0.000  0.000  0.000  0.000  0.185
    3  0.181  0.001  0.000  0.003  0.000  0.000  0.000  0.000  0.000  0.185
    4  0.181  0.001  0.000  0.003  0.000  0.000  0.000  0.000  0.000  0.185
tot    0.724  0.004  0.000  0.012  0.000  0.000  0.000  0.000  0.000  0.739
 
band     3 # energy   -2.10261949 # occ.  1.00000000
 
ion      s     py     pz     px    dxy    dyz    dz2    dxz  x2-y2    tot
    1  0.000  0.000  0.103  0.000  0.000  0.000  0.000  0.000  0.000  0.103
    2  0.000  0.000  0.103  0.000  0.000  0.000  0.000  0.000  0.000  0.103
    3  0.000  0.000  0.096  0.000  0.000  0.000  0.000  0.000  0.000  0.096
    4  0.000  0.000  0.096  0.000  0.000  0.000  0.000  0.000  0.000  0.096
tot    0.000  0.000  0.398  0.000  0.000  0.000  0.000  0.000  0.000  0.398
 
band     4 # energy    4.65138043 # occ.  1.00000000
 
ion      s     py     pz     px    dxy    dyz    dz2    dxz  x2-y2    tot
    1  0.015  0.050  0.000  0.149  0.000  0.000  0.000  0.000  0.000  0.213
    2  0.015  0.050  0.000  0.149  0.000  0.000  0.000  0.000  0.000  0.213
    3  0.015  0.047  0.000  0.142  0.000  0.000  0.000  0.000  0.000  0.204
    4  0.015  0.047  0.000  0.142  0.000  0.000  0.000  0.000  0.000  0.204
tot    0.059  0.194  0.000  0.582  0.000  0.000  0.000  0.000  0.000  0.834
 
band     5 # energy    5.20164162 # occ.  1.00000000
 
ion      s     py     pz     px    dxy    dyz    dz2    dxz  x2-y2    tot
    1  0.014  0.050  0.000  0.151  0.000  0.000  0.000  0.000  0.000  0.215
    2  0.014  0.050  0.000  0.151  0.000  0.000  0.000  0.000  0.000  0.215
    3  0.014  0.051  0.000  0.153  0.000  0.000  0.000  0.000  0.000  0.219
    4  0.014  0.051  0.000  0.153  0.000  0.000  0.000  0.000  0.000  0.219
tot    0.057  0.202  0.000  0.608  0.000  0.000  0.000  0.000  0.000  0.867
 
band     6 # energy    5.23326496 # occ.  1.00000000
 
ion      s     py     pz     px    dxy    dyz    dz2    dxz  x2-y2    tot
    1  0.000  0.162  0.000  0.054  0.000  0.000  0.000  0.000  0.000  0.215
    2  0.000  0.162  0.000  0.054  0.000  0.000  0.000  0.000  0.000  0.215
    3  0.000  0.156  0.000  0.052  0.000  0.000  0.000  0.000  0.000  0.207
    4  0.000  0.156  0.000  0.052  0.000  0.000  0.000  0.000  0.000  0.207
tot    0.000  0.634  0.000  0.211  0.000  0.000  0.000  0.000  0.000  0.846
 
band     7 # energy    5.54509557 # occ.  1.00000000
 
ion      s     py     pz     px    dxy    dyz    dz2    dxz  x2-y2    tot
    1  0.000  0.000  0.159  0.000  0.000  0.000  0.000  0.000  0.000  0.159
    2  0.000  0.000  0.159  0.000  0.000  0.000  0.000  0.000  0.000  0.159
    3  0.000  0.000  0.168  0.000  0.000  0.000  0.000  0.000  0.000  0.168
    4  0.000  0.000  0.168  0.000  0.000  0.000  0.000  0.000  0.000  0.168
tot    0.000  0.000  0.654  0.000  0.000  0.000  0.000  0.000  0.000  0.654
 
band     8 # energy    5.69499923 # occ.  1.00000000
 
ion      s     py     pz     px    dxy    dyz    dz2    dxz  x2-y2    tot
    1  0.000  0.163  0.000  0.054  0.000  0.000  0.000  0.000  0.000  0.217
    2  0.000  0.163  0.000  0.054  0.000  0.000  0.000  0.000  0.000  0.217
    3  0.000  0.164  0.000  0.055  0.000  0.000  0.000  0.000  0.000  0.219
    4  0.000  0.164  0.000  0.055  0.000  0.000  0.000  0.000  0.000  0.219
tot    0.000  0.654  0.000  0.218  0.000  0.000  0.000  0.000  0.000  0.873
 
band     9 # energy   17.78941578 # occ.  0.00000000
 
ion      s     py     pz     px    dxy    dyz    dz2    dxz  x2-y2    tot
    1  0.007  0.029  0.000  0.086  0.000  0.000  0.000  0.000  0.000  0.121
    2  0.007  0.029  0.000  0.086  0.000  0.000  0.000  0.000  0.000  0.121
    3  0.018  0.024  0.000  0.071  0.000  0.000  0.000  0.000  0.000  0.113
    4  0.018  0.024  0.000  0.071  0.000  0.000  0.000  0.000  0.000  0.113
tot    0.050  0.105  0.000  0.314  0.000  0.000  0.000  0.000  0.000  0.469
 
band    10 # energy   18.37183539 # occ.  0.00000000
 
ion      s     py     pz     px    dxy    dyz    dz2    dxz  x2-y2    tot
    1  0.009  0.020  0.000  0.061  0.000  0.000  0.000  0.000  0.000  0.091
    2  0.009  0.020  0.000  0.061  0.000  0.000  0.000  0.000  0.000  0.091
    3  0.002  0.026  0.000  0.077  0.000  0.000  0.000  0.000  0.000  0.105
    4  0.002  0.026  0.000  0.077  0.000  0.000  0.000  0.000  0.000  0.105
tot    0.021  0.093  0.000  0.278  0.000  0.000  0.000  0.000  0.000  0.392
 
band    11 # energy   19.21675939 # occ.  0.00000000
 
ion      s     py     pz     px    dxy    dyz    dz2    dxz  x2-y2    tot
    1  0.000  0.106  0.000  0.035  0.000  0.000  0.000  0.000  0.000  0.142
    2  0.000  0.106  0.000  0.035  0.000  0.000  0.000  0.000  0.000  0.142
    3  0.000  0.092  0.000  0.031  0.000  0.000  0.000  0.000  0.000  0.123
    4  0.000  0.092  0.000  0.031  0.000  0.000  0.000  0.000  0.000  0.123
tot    0.000  0.397  0.000  0.132  0.000  0.000  0.000  0.000  0.000  0.529
 
band    12 # energy   19.24304750 # occ.  0.00000000
 
ion      s     py     pz     px    dxy    dyz    dz2    dxz  x2-y2    tot
    1  0.047  0.006  0.000  0.019  0.000  0.000  0.000  0.000  0.000  0.073
    2  0.047  0.006  0.000  0.019  0.000  0.000  0.000  0.000  0.000  0.073
    3  0.044  0.009  0.000  0.026  0.000  0.000  0.000  0.000  0.000  0.079
    4  0.044  0.009  0.000  0.026  0.000  0.000  0.000  0.000  0.000  0.079
tot    0.182  0.030  0.000  0.091  0.000  0.000  0.000  0.000  0.000  0.303
 
band    13 # energy   19.56723902 # occ.  0.00000000
 
ion      s     py     pz     px    dxy    dyz    dz2    dxz  x2-y2    tot
    1  0.000  0.000  0.184  0.000  0.000  0.000  0.000  0.000  0.000  0.184
    2  0.000  0.000  0.184  0.000  0.000  0.000  0.000  0.000  0.000  0.184
    3  0.000  0.000  0.156  0.000  0.000  0.000  0.000  0.000  0.000  0.156
    4  0.000  0.000  0.156  0.000  0.000  0.000  0.000  0.000  0.000  0.156
tot    0.000  0.000  0.681  0.000  0.000  0.000  0.000  0.000  0.000  0.681
 
band    14 # energy   19.79143668 # occ.  0.00000000
 
ion      s     py     pz     px    dxy    dyz    dz2    dxz  x2-y2    tot
    1  0.000  0.095  0.000  0.032  0.000  0.000  0.000  0.000  0.000  0.127
    2  0.000  0.095  0.000  0.032  0.000  0.000  0.000  0.000  0.000  0.127
    3  0.000  0.113  0.000  0.038  0.000  0.000  0.000  0.000  0.000  0.151
    4  0.000  0.113  0.000  0.038  0.000  0.000  0.000  0.000  0.000  0.151
tot    0.000  0.417  0.000  0.139  0.000  0.000  0.000  0.000  0.000  0.556
 
band    15 # energy   21.61668288 # occ.  0.00000000
 
ion      s     py     pz     px    dxy    dyz    dz2    dxz  x2-y2    tot
    1  0.000  0.000  0.194  0.000  0.000  0.000  0.000  0.000  0.000  0.194
    2  0.000  0.000  0.194  0.000  0.000  0.000  0.000  0.000  0.000  0.194
    3  0.000  0.000  0.189  0.000  0.000  0.000  0.000  0.000  0.000  0.189
    4  0.000  0.000  0.189  0.000  0.000  0.000  0.000  0.000  0.000  0.189
tot    0.000  0.000  0.765  0.000  0.000  0.000  0.000  0.000  0.000  0.765
 
band    16 # energy   23.69299204 # occ.  0.00000000
 
ion      s     py     pz     px    dxy    dyz    dz2    dxz  x2-y2    tot
    1  0.144  0.009  0.000  0.028  0.000  0.000  0.000  0.000  0.000  0.181
    2  0.144  0.009  0.000  0.028  0.000  0.000  0.000  0.000  0.000  0.181
    3  0.134  0.002  0.000  0.007  0.000  0.000  0.000  0.000  0.000  0.143
    4  0.134  0.002  0.000  0.007  0.000  0.000  0.000  0.000  0.000  0.143
tot    0.555  0.024  0.000  0.071  0.000  0.000  0.000  0.000  0.000  0.649
 

 k-point     4 :    0.16666667 0.00000000 0.00000000     weight = 0.00462963

band     1 # energy  -11.90952128 # occ.  1.00000000
 
ion      s     py     pz     px    dxy    dyz    dz2    dxz  x2-y2    tot
    1  0.155  0.002  0.000  0.005  0.000  0.000  0.000  0.000  0.000  0.162
    2  0.155  0.002  0.000  0.005  0.000  0.000  0.000  0.000  0.000  0.162
    3  0.152  0.002  0.000  0.005  0.000  0.000  0.000  0.000  0.000  0.159
    4  0.152  0.002  0.000  0.005  0.000  0.000  0.000  0.000  0.000  0.159
tot    0.612  0.007  0.000  0.022  0.000  0.000  0.000  0.000  0.000  0.641
 
band     2 # energy   -9.58486725 # occ.  1.00000000
 
ion      s     py     pz     px    dxy    dyz    dz2    dxz  x2-y2    tot
    1  0.177  0.002  0.000  0.007  0.000  0.000  0.000  0.000  0.000  0.186
    2  0.177  0.002  0.000  0.007  0.000  0.000  0.000  0.000  0.000  0.186
    3  0.177  0.002  0.000  0.007  0.000  0.000  0.000  0.000  0.000  0.186
    4  0.177  0.002  0.000  0.007  0.000  0.000  0.000  0.000  0.000  0.186
tot    0.707  0.009  0.000  0.027  0.000  0.000  0.000  0.000  0.000  0.743
 
band     3 # energy   -1.60803053 # occ.  1.00000000
 
ion      s     py     pz     px    dxy    dyz    dz2    dxz  x2-y2    tot
    1  0.000  0.000  0.104  0.000  0.000  0.000  0.000  0.000  0.000  0.104
    2  0.000  0.000  0.104  0.000  0.000  0.000  0.000  0.000  0.000  0.104
    3  0.000  0.000  0.096  0.000  0.000  0.000  0.000  0.000  0.000  0.096
    4  0.000  0.000  0.096  0.000  0.000  0.000  0.000  0.000  0.000  0.096
tot    0.000  0.000  0.400  0.000  0.000  0.000  0.000  0.000  0.000  0.400
 
band     4 # energy    3.29756819 # occ.  1.00000000
 
ion      s     py     pz     px    dxy    dyz    dz2    dxz  x2-y2    tot
    1  0.028  0.044  0.000  0.133  0.000  0.000  0.000  0.000  0.000  0.206
    2  0.028  0.044  0.000  0.133  0.000  0.000  0.000  0.000  0.000  0.206
    3  0.028  0.043  0.000  0.128  0.000  0.000  0.000  0.000  0.000  0.199
    4  0.028  0.043  0.000  0.128  0.000  0.000  0.000  0.000  0.000  0.199
tot    0.112  0.174  0.000  0.522  0.000  0.000  0.000  0.000  0.000  0.808
 
band     5 # energy    4.05184328 # occ.  1.00000000
 
ion      s     py     pz     px    dxy    dyz    dz2    dxz  x2-y2    tot
    1  0.028  0.046  0.000  0.138  0.000  0.000  0.000  0.000  0.000  0.212
    2  0.028  0.046  0.000  0.138  0.000  0.000  0.000  0.000  0.000  0.212
    3  0.028  0.047  0.000  0.140  0.000  0.000  0.000  0.000  0.000  0.214
    4  0.028  0.047  0.000  0.140  0.000  0.000  0.000  0.000  0.000  0.214
tot    0.112  0.185  0.000  0.556  0.000  0.000  0.000  0.000  0.000  0.854
 
band     6 # energy    4.56010040 # occ.  1.00000000
 
ion      s     py     pz     px    dxy    dyz    dz2    dxz  x2-y2    tot
    1  0.000  0.159  0.000  0.053  0.000  0.000  0.000  0.000  0.000  0.211
    2  0.000  0.159  0.000  0.053  0.000  0.000  0.000  0.000  0.000  0.211
    3  0.000  0.154  0.000  0.051  0.000  0.000  0.000  0.000  0.000  0.206
    4  0.000  0.154  0.000  0.051  0.000  0.000  0.000  0.000  0.000  0.206
tot    0.000  0.626  0.000  0.209  0.000  0.000  0.000  0.000  0.000  0.834
 
band     7 # energy    5.11246803 # occ.  1.00000000
 
ion      s     py     pz     px    dxy    dyz    dz2    dxz  x2-y2    tot
    1  0.000  0.162  0.000  0.054  0.000  0.000  0.000  0.000  0.000  0.217
    2  0.000  0.162  0.000  0.054  0.000  0.000  0.000  0.000  0.000  0.217
    3  0.000  0.162  0.000  0.054  0.000  0.000  0.000  0.000  0.000  0.216
    4  0.000  0.162  0.000  0.054  0.000  0.000  0.000  0.000  0.000  0.216
tot    0.000  0.649  0.000  0.216  0.000  0.000  0.000  0.000  0.000  0.866
 
band     8 # energy    5.93769669 # occ.  1.00000000
 
ion      s     py     pz     px    dxy    dyz    dz2    dxz  x2-y2    tot
    1  0.000  0.000  0.158  0.000  0.000  0.000  0.000  0.000  0.000  0.158
    2  0.000  0.000  0.158  0.000  0.000  0.000  0.000  0.000  0.000  0.158
    3  0.000  0.000  0.170  0.000  0.000  0.000  0.000  0.000  0.000  0.170
    4  0.000  0.000  0.170  0.000  0.000  0.000  0.000  0.000  0.000  0.170
tot    0.000  0.000  0.655  0.000  0.000  0.000  0.000  0.000  0.000  0.655
 
band     9 # energy   17.54824513 # occ.  0.00000000
 
ion      s     py     pz     px    dxy    dyz    dz2    dxz  x2-y2    tot
    1  0.021  0.022  0.000  0.067  0.000  0.000  0.000  0.000  0.000  0.110
    2  0.021  0.022  0.000  0.067  0.000  0.000  0.000  0.000  0.000  0.110
    3  0.035  0.019  0.000  0.057  0.000  0.000  0.000  0.000  0.000  0.111
    4  0.035  0.019  0.000  0.057  0.000  0.000  0.000  0.000  0.000  0.111
tot    0.112  0.083  0.000  0.248  0.000  0.000  0.000  0.000  0.000  0.443
 
band    10 # energy   18.10383937 # occ.  0.00000000
 
ion      s     py     pz     px    dxy    dyz    dz2    dxz  x2-y2    tot
    1  0.000  0.000  0.168  0.000  0.000  0.000  0.000  0.000  0.000  0.168
    2  0.000  0.000  0.168  0.000  0.000  0.000  0.000  0.000  0.000  0.168
    3  0.000  0.000  0.141  0.000  0.000  0.000  0.000  0.000  0.000  0.141
    4  0.000  0.000  0.141  0.000  0.000  0.000  0.000  0.000  0.000  0.141