unknown system                          
            1
     2.467291    0.000000    0.000000
    -1.233646    2.136737    0.000000
     0.000000    0.000000    7.803073
   C 
   4
Direct configuration=     1
   0.00000000  0.00000000  0.25000000
   0.00000000  0.00000000  0.75000000
   0.33333300  0.66666700  0.25000000
   0.66666700  0.33333300  0.75000000
unknown system                          
            1
     2.449779    0.000000    0.000000
    -1.224890    2.121571    0.000000
     0.000000   -0.000000    7.747448
   C 
   4
Direct configuration=     2
  -0.00000000  0.00000000  0.25000000
  -0.00000000  0.00000000  0.75000000
   0.33333300  0.66666700  0.25000000
   0.66666700  0.33333300  0.75000000
unknown system                          
            1
     2.397244    0.000000    0.000000
    -1.198623    2.076075    0.000000
     0.000000   -0.000000    7.580571
   C 
   4
Direct configuration=     3
  -0.00000000  0.00000000  0.25000000
  -0.00000000  0.00000000  0.75000000
   0.33333300  0.66666700  0.25000000
   0.66666700  0.33333300  0.75000000
unknown system                          
            1
     2.292174    0.000000    0.000000
    -1.146087    1.985081    0.000000
     0.000000   -0.000000    7.246819
   C 
   4
Direct configuration=     4
  -0.00000000  0.00000000  0.25000000
  -0.00000000  0.00000000  0.75000000
   0.33333300  0.66666700  0.25000000
   0.66666700  0.33333300  0.75000000
unknown system                          
            1
     2.295864   -0.000000   -0.000000
    -1.147933    1.988277    0.000000
     0.000000   -0.000000    7.085064
   C 
   4
Direct configuration=     5
   0.00000000 -0.00000000  0.25000000
  -0.00000000  0.00000000  0.75000000
   0.33333300  0.66666700  0.25000000
   0.66666700  0.33333300  0.75000000
unknown system                          
            1
     2.306936   -0.000000   -0.000000
    -1.153468    1.997865    0.000000
     0.000000   -0.000000    6.599799
   C 
   4
Direct configuration=     6
   0.00000000 -0.00000000  0.25000000
  -0.00000000  0.00000000  0.75000000
   0.33333300  0.66666700  0.25000000
   0.66666700  0.33333300  0.75000000
unknown system                          
            1
     2.329078   -0.000000   -0.000000
    -1.164540    2.017041    0.000000
     0.000000   -0.000000    5.629270
   C 
   4
Direct configuration=     7
   0.00000000 -0.00000000  0.25000000
  -0.00000000  0.00000000  0.75000000
   0.33333300  0.66666700  0.25000000
   0.66666700  0.33333300  0.75000000
unknown system                          
            1
     2.373364   -0.000000   -0.000000
    -1.186683    2.055394    0.000000
     0.000000   -0.000000    3.688211
   C 
   4
Direct configuration=     8
   0.00000000 -0.00000000  0.25000000
  -0.00000000  0.00000000  0.75000000
   0.33333300  0.66666700  0.25000000
   0.66666700  0.33333300  0.75000000
unknown system                          
            1
     2.340171   -0.000000   -0.000000
    -1.170086    2.026649    0.000000
     0.000000   -0.000000    5.143046
   C 
   4
Direct configuration=     9
   0.00000000 -0.00000000  0.25000000
  -0.00000000  0.00000000  0.75000000
   0.33333300  0.66666700  0.25000000
   0.66666700  0.33333300  0.75000000
unknown system                          
            1
     2.350227   -0.000000   -0.000000
    -1.175114    2.035357    0.000000
     0.000000   -0.000000    4.702293
   C 
   4
Direct configuration=    10
   0.00000000 -0.00000000  0.25000000
  -0.00000000  0.00000000  0.75000000
   0.33333300  0.66666700  0.25000000
   0.66666700  0.33333300  0.75000000
unknown system                          
            1
     2.347710   -0.000000   -0.000000
    -1.173856    2.033177    0.000000
     0.000000   -0.000000    4.812633
   C 
   4
Direct configuration=    11
   0.00000000 -0.00000000  0.25000000
  -0.00000000  0.00000000  0.75000000
   0.33333300  0.66666700  0.25000000
   0.66666700  0.33333300  0.75000000
unknown system                          
            1
     2.348057   -0.000000   -0.000000
    -1.174029    2.033477    0.000000
     0.000000   -0.000000    4.797433
   C 
   4
Direct configuration=    12
   0.00000000 -0.00000000  0.25000000
  -0.00000000  0.00000000  0.75000000
   0.33333300  0.66666700  0.25000000
   0.66666700  0.33333300  0.75000000
unknown system                          
            1
     2.381138   -0.000000   -0.000000
    -1.190569    2.062126   -0.000000
     0.000000   -0.000000    4.836036
   C 
   4
Direct configuration=    13
   0.00000000 -0.00000000  0.25000000
  -0.00000000  0.00000000  0.75000000
   0.33333300  0.66666700  0.25000000
   0.66666700  0.33333300  0.75000000
unknown system                          
            1
     2.372592   -0.000000   -0.000000
    -1.186297    2.054726    0.000000
     0.000000   -0.000000    4.826065
   C 
   4
Direct configuration=    14
   0.00000000 -0.00000000  0.25000000
  -0.00000000  0.00000000  0.75000000
   0.33333300  0.66666700  0.25000000
   0.66666700  0.33333300  0.75000000
