   4   4   1   0
  0.1028436E+02  0.2467291E-09  0.2467292E-09  0.7803073E-09  0.1500000E-16
   1.0000000000000000E-004
  CAR 
 unknown system                          
     33.88007056    -14.61169096  301      9.63869864      1.00000000
    -14.612  0.0000E+00  0.0000E+00  0.0000E+00  0.0000E+00
    -14.450  0.0000E+00  0.0000E+00  0.0000E+00  0.0000E+00
    -14.288  0.0000E+00  0.0000E+00  0.0000E+00  0.0000E+00
    -14.127  0.0000E+00  0.0000E+00  0.0000E+00  0.0000E+00
    -13.965  0.0000E+00  0.0000E+00  0.0000E+00  0.0000E+00
    -13.803  0.0000E+00  0.0000E+00  0.0000E+00  0.0000E+00
    -13.642  0.0000E+00  0.0000E+00  0.0000E+00  0.0000E+00
    -13.480  0.0000E+00  0.0000E+00  0.0000E+00  0.0000E+00
    -13.319  0.0000E+00  0.0000E+00  0.0000E+00  0.0000E+00
    -13.157  0.0000E+00  0.0000E+00  0.0000E+00  0.0000E+00
    -12.995  0.0000E+00  0.0000E+00  0.0000E+00  0.0000E+00
    -12.834  0.0000E+00  0.0000E+00  0.0000E+00  0.0000E+00
    -12.672  0.0000E+00  0.0000E+00  0.0000E+00  0.0000E+00
    -12.510  0.0000E+00  0.0000E+00  0.0000E+00  0.0000E+00
    -12.349  0.7792E-04  0.7792E-04  0.1527E-05  0.1527E-05
    -12.187  0.4509E-03  0.4509E-03  0.4519E-04  0.4519E-04
    -12.025  0.7175E-03  0.7175E-03  0.1459E-03  0.1459E-03
    -11.864  0.8588E-03  0.8588E-03  0.2737E-03  0.2737E-03
    -11.702  0.9972E-03  0.9972E-03  0.4237E-03  0.4237E-03
    -11.541  0.1119E-02  0.1119E-02  0.5949E-03  0.5949E-03
    -11.379  0.1267E-02  0.1267E-02  0.7874E-03  0.7874E-03
    -11.217  0.1392E-02  0.1392E-02  0.1003E-02  0.1003E-02
    -11.056  0.1482E-02  0.1482E-02  0.1235E-02  0.1235E-02
    -10.894  0.1591E-02  0.1591E-02  0.1483E-02  0.1483E-02
    -10.732  0.1700E-02  0.1700E-02  0.1749E-02  0.1749E-02
    -10.571  0.1794E-02  0.1794E-02  0.2032E-02  0.2032E-02
    -10.409  0.1896E-02  0.1896E-02  0.2330E-02  0.2330E-02
    -10.247  0.2007E-02  0.2007E-02  0.2645E-02  0.2645E-02
    -10.086  0.2135E-02  0.2135E-02  0.2979E-02  0.2979E-02
     -9.924  0.2313E-02  0.2313E-02  0.3339E-02  0.3339E-02
     -9.763  0.2493E-02  0.2493E-02  0.3727E-02  0.3727E-02
     -9.601  0.2685E-02  0.2685E-02  0.4146E-02  0.4146E-02
     -9.439  0.2850E-02  0.2850E-02  0.4595E-02  0.4595E-02
     -9.278  0.2854E-02  0.2854E-02  0.5056E-02  0.5056E-02
     -9.116  0.2855E-02  0.2855E-02  0.5517E-02  0.5517E-02
     -8.954  0.2854E-02  0.2854E-02  0.5978E-02  0.5978E-02
     -8.793  0.2864E-02  0.2864E-02  0.6440E-02  0.6440E-02
     -8.631  0.2873E-02  0.2873E-02  0.6904E-02  0.6904E-02
     -8.469  0.2883E-02  0.2883E-02  0.7369E-02  0.7369E-02
     -8.308  0.2888E-02  0.2888E-02  0.7836E-02  0.7836E-02
     -8.146  0.2890E-02  0.2890E-02  0.8303E-02  0.8303E-02
     -7.984  0.2899E-02  0.2899E-02  0.8770E-02  0.8770E-02
     -7.823  0.2910E-02  0.2910E-02  0.9240E-02  0.9240E-02
     -7.661  0.2918E-02  0.2918E-02  0.9711E-02  0.9711E-02
     -7.500  0.2924E-02  0.2924E-02  0.1018E-01  0.1018E-01
     -7.338  0.2939E-02  0.2939E-02  0.1066E-01  0.1066E-01
     -7.176  0.2952E-02  0.2952E-02  0.1113E-01  0.1113E-01
     -7.015  0.2966E-02  0.2966E-02  0.1161E-01  0.1161E-01
     -6.853  0.2985E-02  0.2985E-02  0.1209E-01  0.1209E-01
     -6.691  0.3014E-02  0.3014E-02  0.1258E-01  0.1258E-01
     -6.530  0.3058E-02  0.3058E-02  0.1307E-01  0.1307E-01
     -6.368  0.3267E-02  0.3267E-02  0.1358E-01  0.1358E-01
     -6.206  0.3279E-02  0.3279E-02  0.1411E-01  0.1411E-01
     -6.045  0.3233E-02  0.3233E-02  0.1464E-01  0.1464E-01
     -5.883  0.3248E-02  0.3248E-02  0.1516E-01  0.1516E-01
     -5.722  0.3025E-02  0.3025E-02  0.1567E-01  0.1567E-01
     -5.560  0.2986E-02  0.2986E-02  0.1615E-01  0.1615E-01
     -5.398  0.3178E-02  0.3178E-02  0.1665E-01  0.1665E-01
     -5.237  0.3595E-02  0.3595E-02  0.1719E-01  0.1719E-01
     -5.075  0.4163E-02  0.4163E-02  0.1785E-01  0.1785E-01
     -4.913  0.2330E-02  0.2330E-02  0.1836E-01  0.1836E-01
     -4.752  0.1939E-02  0.1939E-02  0.1870E-01  0.1870E-01
     -4.590  0.2213E-02  0.2213E-02  0.1903E-01  0.1903E-01
     -4.428  0.1745E-02  0.1745E-02  0.1934E-01  0.1934E-01
     -4.267  0.2207E-02  0.2207E-02  0.1966E-01  0.1966E-01
     -4.105  0.2723E-02  0.2723E-02  0.2008E-01  0.2008E-01
     -3.944  0.3268E-02  0.3268E-02  0.2055E-01  0.2055E-01
     -3.782  0.3391E-02  0.3391E-02  0.2108E-01  0.2108E-01
     -3.620  0.2636E-02  0.2636E-02  0.2157E-01  0.2157E-01
     -3.459  0.2854E-02  0.2854E-02  0.2199E-01  0.2199E-01
     -3.297  0.4333E-02  0.4333E-02  0.2257E-01  0.2257E-01
     -3.135  0.3884E-02  0.3884E-02  0.2324E-01  0.2324E-01
     -2.974  0.3361E-02  0.3361E-02  0.2382E-01  0.2382E-01
     -2.812  0.3353E-02  0.3353E-02  0.2436E-01  0.2436E-01
     -2.650  0.3306E-02  0.3306E-02  0.2490E-01  0.2490E-01
     -2.489  0.3457E-02  0.3457E-02  0.2545E-01  0.2545E-01
     -2.327  0.3152E-02  0.3152E-02  0.2599E-01  0.2599E-01
     -2.165  0.3017E-02  0.3017E-02  0.2648E-01  0.2648E-01
     -2.004  0.2958E-02  0.2958E-02  0.2697E-01  0.2697E-01
     -1.842  0.2895E-02  0.2895E-02  0.2744E-01  0.2744E-01
     -1.681  0.3130E-02  0.3130E-02  0.2792E-01  0.2792E-01
     -1.519  0.3949E-02  0.3949E-02  0.2850E-01  0.2850E-01
     -1.357  0.3588E-02  0.3588E-02  0.2911E-01  0.2911E-01
     -1.196  0.3720E-02  0.3720E-02  0.2971E-01  0.2971E-01
     -1.034  0.3842E-02  0.3842E-02  0.3032E-01  0.3032E-01
     -0.872  0.3963E-02  0.3963E-02  0.3095E-01  0.3095E-01
     -0.711  0.4091E-02  0.4091E-02  0.3160E-01  0.3160E-01
     -0.549  0.4257E-02  0.4257E-02  0.3227E-01  0.3227E-01
     -0.387  0.4318E-02  0.4318E-02  0.3297E-01  0.3297E-01
     -0.226  0.4364E-02  0.4364E-02  0.3367E-01  0.3367E-01
     -0.064  0.4583E-02  0.4583E-02  0.3439E-01  0.3439E-01
      0.097  0.4633E-02  0.4633E-02  0.3514E-01  0.3514E-01
      0.259  0.4662E-02  0.4662E-02  0.3589E-01  0.3589E-01
      0.421  0.4730E-02  0.4730E-02  0.3665E-01  0.3665E-01
      0.582  0.4849E-02  0.4849E-02  0.3742E-01  0.3742E-01
      0.744  0.4942E-02  0.4942E-02  0.3822E-01  0.3822E-01
      0.906  0.4870E-02  0.4870E-02  0.3901E-01  0.3901E-01
      1.067  0.4852E-02  0.4852E-02  0.3979E-01  0.3979E-01
      1.229  0.4831E-02  0.4831E-02  0.4058E-01  0.4058E-01
      1.391  0.4765E-02  0.4765E-02  0.4135E-01  0.4135E-01
      1.552  0.4983E-02  0.4983E-02  0.4213E-01  0.4213E-01
      1.714  0.5497E-02  0.5497E-02  0.4298E-01  0.4298E-01
      1.876  0.6666E-02  0.6666E-02  0.4392E-01  0.4392E-01
      2.037  0.6118E-02  0.6118E-02  0.4494E-01  0.4494E-01
      2.199  0.6095E-02  0.6095E-02  0.4593E-01  0.4593E-01
      2.360  0.6359E-02  0.6359E-02  0.4692E-01  0.4692E-01
      2.522  0.7604E-02  0.7604E-02  0.4804E-01  0.4804E-01
      2.684  0.7684E-02  0.7684E-02  0.4929E-01  0.4929E-01
      2.845  0.7621E-02  0.7621E-02  0.5053E-01  0.5053E-01
      3.007  0.7545E-02  0.7545E-02  0.5176E-01  0.5176E-01
      3.169  0.7641E-02  0.7641E-02  0.5298E-01  0.5298E-01
      3.330  0.7258E-02  0.7258E-02  0.5421E-01  0.5421E-01
      3.492  0.5731E-02  0.5731E-02  0.5525E-01  0.5525E-01
      3.654  0.6329E-02  0.6329E-02  0.5620E-01  0.5620E-01
      3.815  0.6013E-02  0.6013E-02  0.5721E-01  0.5721E-01
      3.977  0.5336E-02  0.5336E-02  0.5813E-01  0.5813E-01
      4.138  0.5518E-02  0.5518E-02  0.5900E-01  0.5900E-01
      4.300  0.5675E-02  0.5675E-02  0.5992E-01  0.5992E-01
      4.462  0.5661E-02  0.5661E-02  0.6084E-01  0.6084E-01
      4.623  0.5211E-02  0.5211E-02  0.6171E-01  0.6171E-01
      4.785  0.5087E-02  0.5087E-02  0.6254E-01  0.6254E-01
      4.947  0.5087E-02  0.5087E-02  0.6337E-01  0.6337E-01
      5.108  0.5255E-02  0.5255E-02  0.6420E-01  0.6420E-01
      5.270  0.5280E-02  0.5280E-02  0.6506E-01  0.6506E-01
      5.432  0.5122E-02  0.5122E-02  0.6590E-01  0.6590E-01
      5.593  0.5010E-02  0.5010E-02  0.6672E-01  0.6672E-01
      5.755  0.5085E-02  0.5085E-02  0.6753E-01  0.6753E-01
      5.916  0.4852E-02  0.4852E-02  0.6836E-01  0.6836E-01
      6.078  0.4513E-02  0.4513E-02  0.6910E-01  0.6910E-01
      6.240  0.4386E-02  0.4386E-02  0.6982E-01  0.6982E-01
      6.401  0.4417E-02  0.4418E-02  0.7053E-01  0.7053E-01
      6.563  0.4775E-02  0.4775E-02  0.7127E-01  0.7127E-01
      6.725  0.4171E-02  0.4171E-02  0.7198E-01  0.7198E-01
      6.886  0.3403E-02  0.3403E-02  0.7261E-01  0.7261E-01
      7.048  0.2544E-02  0.2544E-02  0.7307E-01  0.7307E-01
      7.210  0.2837E-02  0.2837E-02  0.7350E-01  0.7350E-01
      7.371  0.3367E-02  0.3367E-02  0.7400E-01  0.7400E-01
      7.533  0.3664E-02  0.3664E-02  0.7458E-01  0.7458E-01
      7.695  0.3444E-02  0.3444E-02  0.7517E-01  0.7517E-01
      7.856  0.3530E-02  0.3530E-02  0.7573E-01  0.7573E-01
      8.018  0.3579E-02  0.3579E-02  0.7631E-01  0.7631E-01
      8.179  0.3761E-02  0.3761E-02  0.7690E-01  0.7690E-01
      8.341  0.3289E-02  0.3289E-02  0.7748E-01  0.7748E-01
      8.503  0.3005E-02  0.3005E-02  0.7798E-01  0.7798E-01
      8.664  0.2794E-02  0.2794E-02  0.7845E-01  0.7845E-01
      8.826  0.2450E-02  0.2450E-02  0.7888E-01  0.7888E-01
      8.988  0.2027E-02  0.2027E-02  0.7924E-01  0.7924E-01
      9.149  0.1674E-02  0.1674E-02  0.7954E-01  0.7954E-01
      9.311  0.1105E-02  0.1105E-02  0.7976E-01  0.7976E-01
      9.473  0.7168E-03  0.7168E-03  0.7991E-01  0.7991E-01
      9.634  0.4105E-03  0.4105E-03  0.8000E-01  0.8000E-01
      9.796  0.1807E-03  0.1807E-03  0.8004E-01  0.8004E-01
      9.957  0.3691E-03  0.3691E-03  0.8008E-01  0.8008E-01
     10.119  0.4993E-03  0.4993E-03  0.8016E-01  0.8016E-01
     10.281  0.5345E-03  0.5345E-03  0.8024E-01  0.8024E-01
     10.442  0.5973E-03  0.5973E-03  0.8033E-01  0.8033E-01
     10.604  0.6737E-03  0.6737E-03  0.8044E-01  0.8044E-01
     10.766  0.7388E-03  0.7388E-03  0.8055E-01  0.8055E-01
     10.927  0.8382E-03  0.8382E-03  0.8068E-01  0.8068E-01
     11.089  0.9795E-03  0.9795E-03  0.8082E-01  0.8082E-01
     11.251  0.1247E-02  0.1247E-02  0.8100E-01  0.8100E-01
     11.412  0.1466E-02  0.1466E-02  0.8122E-01  0.8122E-01
     11.574  0.1851E-02  0.1851E-02  0.8148E-01  0.8148E-01
     11.735  0.2561E-02  0.2561E-02  0.8184E-01  0.8184E-01
     11.897  0.3397E-02  0.3397E-02  0.8232E-01  0.8232E-01
     12.059  0.4263E-02  0.4263E-02  0.8295E-01  0.8295E-01
     12.220  0.4001E-02  0.4001E-02  0.8363E-01  0.8363E-01
     12.382  0.3673E-02  0.3673E-02  0.8425E-01  0.8425E-01
     12.544  0.3433E-02  0.3433E-02  0.8482E-01  0.8482E-01
     12.705  0.3088E-02  0.3088E-02  0.8535E-01  0.8535E-01
     12.867  0.2856E-02  0.2856E-02  0.8583E-01  0.8583E-01
     13.029  0.2760E-02  0.2760E-02  0.8628E-01  0.8628E-01
     13.190  0.2701E-02  0.2701E-02  0.8672E-01  0.8672E-01
     13.352  0.2662E-02  0.2662E-02  0.8715E-01  0.8715E-01
     13.514  0.2693E-02  0.2693E-02  0.8758E-01  0.8758E-01
     13.675  0.2755E-02  0.2755E-02  0.8802E-01  0.8802E-01
     13.837  0.2824E-02  0.2824E-02  0.8847E-01  0.8847E-01
     13.998  0.2756E-02  0.2756E-02  0.8893E-01  0.8893E-01
     14.160  0.2455E-02  0.2455E-02  0.8935E-01  0.8935E-01
     14.322  0.2284E-02  0.2284E-02  0.8973E-01  0.8973E-01
     14.483  0.2175E-02  0.2175E-02  0.9009E-01  0.9009E-01
     14.645  0.2073E-02  0.2073E-02  0.9043E-01  0.9043E-01
     14.807  0.2007E-02  0.2007E-02  0.9076E-01  0.9076E-01
     14.968  0.1969E-02  0.1969E-02  0.9108E-01  0.9108E-01
     15.130  0.1921E-02  0.1921E-02  0.9140E-01  0.9140E-01
     15.292  0.1870E-02  0.1870E-02  0.9170E-01  0.9170E-01
     15.453  0.1821E-02  0.1821E-02  0.9200E-01  0.9200E-01
     15.615  0.1774E-02  0.1774E-02  0.9229E-01  0.9229E-01
     15.776  0.1740E-02  0.1740E-02  0.9258E-01  0.9258E-01
     15.938  0.1715E-02  0.1715E-02  0.9286E-01  0.9286E-01
     16.100  0.1693E-02  0.1693E-02  0.9313E-01  0.9313E-01
     16.261  0.1674E-02  0.1674E-02  0.9340E-01  0.9340E-01
     16.423  0.1656E-02  0.1656E-02  0.9367E-01  0.9367E-01
     16.585  0.1642E-02  0.1642E-02  0.9394E-01  0.9394E-01
     16.746  0.1628E-02  0.1628E-02  0.9420E-01  0.9420E-01
     16.908  0.1683E-02  0.1683E-02  0.9447E-01  0.9447E-01
     17.070  0.1986E-02  0.1986E-02  0.9476E-01  0.9476E-01
     17.231  0.2405E-02  0.2405E-02  0.9512E-01  0.9512E-01
     17.393  0.2699E-02  0.2699E-02  0.9553E-01  0.9553E-01
     17.555  0.2856E-02  0.2856E-02  0.9598E-01  0.9598E-01
     17.716  0.3042E-02  0.3042E-02  0.9646E-01  0.9646E-01
     17.878  0.3290E-02  0.3290E-02  0.9697E-01  0.9697E-01
     18.039  0.3542E-02  0.3542E-02  0.9752E-01  0.9752E-01
     18.201  0.3756E-02  0.3756E-02  0.9811E-01  0.9811E-01
     18.363  0.4072E-02  0.4072E-02  0.9874E-01  0.9874E-01
     18.524  0.4441E-02  0.4441E-02  0.9943E-01  0.9943E-01
     18.686  0.6134E-02  0.6134E-02  0.1002E+00  0.1002E+00
     18.848  0.5333E-02  0.5333E-02  0.1013E+00  0.1013E+00
     19.009  0.5172E-02  0.5172E-02  0.1021E+00  0.1021E+00
     19.171  0.5430E-02  0.5430E-02  0.1030E+00  0.1030E+00
     19.333  0.5703E-02  0.5703E-02  0.1039E+00  0.1039E+00
     19.494  0.4186E-02  0.4186E-02  0.1047E+00  0.1047E+00
     19.656  0.5631E-02  0.5631E-02  0.1055E+00  0.1055E+00
     19.817  0.5987E-02  0.5987E-02  0.1064E+00  0.1064E+00
     19.979  0.5638E-02  0.5638E-02  0.1074E+00  0.1074E+00
     20.141  0.5632E-02  0.5632E-02  0.1083E+00  0.1083E+00
     20.302  0.6746E-02  0.6746E-02  0.1093E+00  0.1093E+00
     20.464  0.6317E-02  0.6317E-02  0.1104E+00  0.1104E+00
     20.626  0.6099E-02  0.6099E-02  0.1114E+00  0.1114E+00
     20.787  0.6708E-02  0.6708E-02  0.1124E+00  0.1124E+00
     20.949  0.7081E-02  0.7081E-02  0.1136E+00  0.1136E+00
     21.111  0.6850E-02  0.6849E-02  0.1147E+00  0.1147E+00
     21.272  0.5855E-02  0.5855E-02  0.1157E+00  0.1157E+00
     21.434  0.6041E-02  0.6041E-02  0.1167E+00  0.1167E+00
     21.595  0.6431E-02  0.6431E-02  0.1177E+00  0.1177E+00
     21.757  0.5522E-02  0.5522E-02  0.1186E+00  0.1186E+00
     21.919  0.5219E-02  0.5219E-02  0.1195E+00  0.1195E+00
     22.080  0.4924E-02  0.4924E-02  0.1203E+00  0.1203E+00
     22.242  0.4514E-02  0.4514E-02  0.1211E+00  0.1211E+00
     22.404  0.4271E-02  0.4271E-02  0.1218E+00  0.1218E+00
     22.565  0.3464E-02  0.3464E-02  0.1224E+00  0.1224E+00
     22.727  0.3301E-02  0.3301E-02  0.1230E+00  0.1230E+00
     22.889  0.3412E-02  0.3412E-02  0.1235E+00  0.1235E+00
     23.050  0.4083E-02  0.4083E-02  0.1241E+00  0.1241E+00
     23.212  0.3942E-02  0.3942E-02  0.1248E+00  0.1248E+00
     23.374  0.3919E-02  0.3919E-02  0.1254E+00  0.1254E+00
     23.535  0.3943E-02  0.3943E-02  0.1260E+00  0.1260E+00
     23.697  0.4327E-02  0.4327E-02  0.1267E+00  0.1267E+00
     23.858  0.5117E-02  0.5117E-02  0.1275E+00  0.1275E+00
     24.020  0.5760E-02  0.5760E-02  0.1283E+00  0.1283E+00
     24.182  0.6242E-02  0.6242E-02  0.1293E+00  0.1293E+00
     24.343  0.6394E-02  0.6394E-02  0.1303E+00  0.1303E+00
     24.505  0.6896E-02  0.6896E-02  0.1314E+00  0.1314E+00
     24.667  0.7358E-02  0.7358E-02  0.1325E+00  0.1325E+00
     24.828  0.8782E-02  0.8782E-02  0.1338E+00  0.1338E+00
     24.990  0.7983E-02  0.7983E-02  0.1351E+00  0.1351E+00
     25.152  0.8325E-02  0.8325E-02  0.1365E+00  0.1365E+00
     25.313  0.6791E-02  0.6791E-02  0.1377E+00  0.1377E+00
     25.475  0.6546E-02  0.6546E-02  0.1388E+00  0.1388E+00
     25.636  0.6285E-02  0.6285E-02  0.1398E+00  0.1398E+00
     25.798  0.6183E-02  0.6183E-02  0.1408E+00  0.1408E+00
     25.960  0.6296E-02  0.6296E-02  0.1418E+00  0.1418E+00
     26.121  0.6296E-02  0.6296E-02  0.1428E+00  0.1428E+00
     26.283  0.6258E-02  0.6258E-02  0.1438E+00  0.1438E+00
     26.445  0.6689E-02  0.6689E-02  0.1449E+00  0.1449E+00
     26.606  0.6810E-02  0.6810E-02  0.1460E+00  0.1460E+00
     26.768  0.6982E-02  0.6982E-02  0.1471E+00  0.1471E+00
     26.930  0.6274E-02  0.6274E-02  0.1482E+00  0.1482E+00
     27.091  0.5277E-02  0.5277E-02  0.1492E+00  0.1492E+00
     27.253  0.4793E-02  0.4793E-02  0.1500E+00  0.1500E+00
     27.415  0.4783E-02  0.4783E-02  0.1508E+00  0.1508E+00
     27.576  0.4767E-02  0.4767E-02  0.1515E+00  0.1515E+00
     27.738  0.4715E-02  0.4715E-02  0.1523E+00  0.1523E+00
     27.899  0.4896E-02  0.4896E-02  0.1531E+00  0.1531E+00
     28.061  0.4350E-02  0.4350E-02  0.1538E+00  0.1538E+00
     28.223  0.3798E-02  0.3798E-02  0.1545E+00  0.1545E+00
     28.384  0.3360E-02  0.3360E-02  0.1551E+00  0.1551E+00
     28.546  0.3003E-02  0.3003E-02  0.1556E+00  0.1556E+00
     28.708  0.2765E-02  0.2766E-02  0.1561E+00  0.1561E+00
     28.869  0.2613E-02  0.2614E-02  0.1565E+00  0.1565E+00
     29.031  0.2490E-02  0.2490E-02  0.1569E+00  0.1569E+00
     29.193  0.2365E-02  0.2365E-02  0.1573E+00  0.1573E+00
     29.354  0.2243E-02  0.2243E-02  0.1577E+00  0.1577E+00
     29.516  0.2088E-02  0.2088E-02  0.1580E+00  0.1580E+00
     29.677  0.2330E-02  0.2331E-02  0.1584E+00  0.1584E+00
     29.839  0.2337E-02  0.2337E-02  0.1587E+00  0.1587E+00
     30.001  0.2109E-02  0.2109E-02  0.1591E+00  0.1591E+00
     30.162  0.1268E-02  0.1267E-02  0.1594E+00  0.1594E+00
     30.324  0.7705E-03  0.7705E-03  0.1595E+00  0.1595E+00
     30.486  0.6447E-03  0.6447E-03  0.1597E+00  0.1597E+00
     30.647  0.5365E-03  0.5365E-03  0.1597E+00  0.1597E+00
     30.809  0.4382E-03  0.4382E-03  0.1598E+00  0.1598E+00
     30.971  0.3464E-03  0.3464E-03  0.1599E+00  0.1599E+00
     31.132  0.2610E-03  0.2610E-03  0.1599E+00  0.1599E+00
     31.294  0.1786E-03  0.1786E-03  0.1600E+00  0.1600E+00
     31.455  0.8243E-04  0.8244E-04  0.1600E+00  0.1600E+00
     31.617  0.6051E-05  0.6053E-05  0.1600E+00  0.1600E+00
     31.779  0.0000E+00  0.0000E+00  0.1600E+00  0.1600E+00
     31.940  0.0000E+00  0.0000E+00  0.1600E+00  0.1600E+00
     32.102  0.0000E+00  0.0000E+00  0.1600E+00  0.1600E+00
     32.264  0.0000E+00  0.0000E+00  0.1600E+00  0.1600E+00
     32.425  0.0000E+00  0.0000E+00  0.1600E+00  0.1600E+00
     32.587  0.0000E+00  0.0000E+00  0.1600E+00  0.1600E+00
     32.749  0.0000E+00  0.0000E+00  0.1600E+00  0.1600E+00
     32.910  0.0000E+00  0.0000E+00  0.1600E+00  0.1600E+00
     33.072  0.0000E+00  0.0000E+00  0.1600E+00  0.1600E+00
     33.234  0.0000E+00  0.0000E+00  0.1600E+00  0.1600E+00
     33.395  0.0000E+00  0.0000E+00  0.1600E+00  0.1600E+00
     33.557  0.0000E+00  0.0000E+00  0.1600E+00  0.1600E+00
     33.718  0.0000E+00  0.0000E+00  0.1600E+00  0.1600E+00
     33.880  0.0000E+00  0.0000E+00  0.1600E+00  0.1600E+00
     33.88007056    -14.61169096  301      9.63869864      1.00000000
    -14.612  0.0000E+00  0.0000E+00  0.0000E+00  0.0000E+00  0.0000E+00  0.0000E+00  0.0000E+00  0.0000E+00  0.0000E+00  0.0000E+00  0.0000E+00  0.0000E+00  0.0000E+00  0.0000E+00  0.0000E+00  0.0000E+00  0.0000E+00  0.0000E+00
    -14.450  0.0000E+00  0.0000E+00  0.0000E+00  0.0000E+00  0.0000E+00  0.0000E+00  0.0000E+00  0.0000E+00  0.0000E+00  0.0000E+00  0.0000E+00  0.0000E+00  0.0000E+00  0.0000E+00  0.0000E+00  0.0000E+00  0.0000E+00  0.0000E+00
    -14.288  0.0000E+00  0.0000E+00  0.0000E+00  0.0000E+00  0.0000E+00  0.0000E+00  0.0000E+00  0.0000E+00  0.0000E+00  0.0000E+00  0.0000E+00  0.0000E+00  0.0000E+00  0.0000E+00  0.0000E+00  0.0000E+00  0.0000E+00  0.0000E+00
    -14.127  0.0000E+00  0.0000E+00  0.0000E+00  0.0000E+00  0.0000E+00  0.0000E+00  0.0000E+00  0.0000E+00  0.0000E+00  0.0000E+00  0.0000E+00  0.0000E+00  0.0000E+00  0.0000E+00  0.0000E+00  0.0000E+00  0.0000E+00  0.0000E+00
    -13.965  0.0000E+00  0.0000E+00  0.0000E+00  0.0000E+00  0.0000E+00  0.0000E+00  0.0000E+00  0.0000E+00  0.0000E+00  0.0000E+00  0.0000E+00  0.0000E+00  0.0000E+00  0.0000E+00  0.0000E+00  0.0000E+00  0.0000E+00  0.0000E+00
    -13.803  0.0000E+00  0.0000E+00  0.0000E+00  0.0000E+00  0.0000E+00  0.0000E+00  0.0000E+00  0.0000E+00  0.0000E+00  0.0000E+00  0.0000E+00  0.0000E+00  0.0000E+00  0.0000E+00  0.0000E+00  0.0000E+00  0.0000E+00  0.0000E+00
    -13.642  0.0000E+00  0.0000E+00  0.0000E+00  0.0000E+00  0.0000E+00  0.0000E+00  0.0000E+00  0.0000E+00  0.0000E+00  0.0000E+00  0.0000E+00  0.0000E+00  0.0000E+00  0.0000E+00  0.0000E+00  0.0000E+00  0.0000E+00  0.0000E+00
    -13.480  0.0000E+00  0.0000E+00  0.0000E+00  0.0000E+00  0.0000E+00  0.0000E+00  0.0000E+00  0.0000E+00  0.0000E+00  0.0000E+00  0.0000E+00  0.0000E+00  0.0000E+00  0.0000E+00  0.0000E+00  0.0000E+00  0.0000E+00  0.0000E+00
    -13.319  0.0000E+00  0.0000E+00  0.0000E+00  0.0000E+00  0.0000E+00  0.0000E+00  0.0000E+00  0.0000E+00  0.0000E+00  0.0000E+00  0.0000E+00  0.0000E+00  0.0000E+00  0.0000E+00  0.0000E+00  0.0000E+00  0.0000E+00  0.0000E+00
    -13.157  0.0000E+00  0.0000E+00  0.0000E+00  0.0000E+00  0.0000E+00  0.0000E+00  0.0000E+00  0.0000E+00  0.0000E+00  0.0000E+00  0.0000E+00  0.0000E+00  0.0000E+00  0.0000E+00  0.0000E+00  0.0000E+00  0.0000E+00  0.0000E+00
    -12.995  0.0000E+00  0.0000E+00  0.0000E+00  0.0000E+00  0.0000E+00  0.0000E+00  0.0000E+00  0.0000E+00  0.0000E+00  0.0000E+00  0.0000E+00  0.0000E+00  0.0000E+00  0.0000E+00  0.0000E+00  0.0000E+00  0.0000E+00  0.0000E+00
    -12.834  0.0000E+00  0.0000E+00  0.0000E+00  0.0000E+00  0.0000E+00  0.0000E+00  0.0000E+00  0.0000E+00  0.0000E+00  0.0000E+00  0.0000E+00  0.0000E+00  0.0000E+00  0.0000E+00  0.0000E+00  0.0000E+00  0.0000E+00  0.0000E+00
    -12.672  0.0000E+00  0.0000E+00  0.0000E+00  0.0000E+00  0.0000E+00  0.0000E+00  0.0000E+00  0.0000E+00  0.0000E+00  0.0000E+00  0.0000E+00  0.0000E+00  0.0000E+00  0.0000E+00  0.0000E+00  0.0000E+00  0.0000E+00  0.0000E+00
    -12.510  0.0000E+00  0.0000E+00  0.0000E+00  0.0000E+00  0.0000E+00  0.0000E+00  0.0000E+00  0.0000E+00  0.0000E+00  0.0000E+00  0.0000E+00  0.0000E+00  0.0000E+00  0.0000E+00  0.0000E+00  0.0000E+00  0.0000E+00  0.0000E+00
    -12.349  0.1254E-02  0.1254E-02  0.1025E-05  0.1025E-05  0.1964E-05  0.1964E-05  0.3074E-05  0.3075E-05  0.0000E+00  0.0000E+00  0.0000E+00  0.0000E+00  0.0000E+00  0.0000E+00  0.0000E+00  0.0000E+00  0.0000E+00  0.0000E+00
    -12.187  0.7234E-02  0.7234E-02  0.2578E-04  0.2578E-04  0.1629E-04  0.1629E-04  0.3234E-04  0.3234E-04  0.0000E+00  0.0000E+00  0.0000E+00  0.0000E+00  0.0000E+00  0.0000E+00  0.0000E+00  0.0000E+00  0.0000E+00  0.0000E+00
    -12.025  0.1173E-01  0.1173E-01  0.8336E-04  0.8336E-04  0.3253E-04  0.3253E-04  0.8642E-04  0.8642E-04  0.0000E+00  0.0000E+00  0.0000E+00  0.0000E+00  0.0000E+00  0.0000E+00  0.0000E+00  0.0000E+00  0.0000E+00  0.0000E+00
    -11.864  0.1465E-01  0.1465E-01  0.1433E-03  0.1433E-03  0.3809E-04  0.3809E-04  0.1559E-03  0.1559E-03  0.0000E+00  0.0000E+00  0.0000E+00  0.0000E+00  0.0000E+00  0.0000E+00  0.0000E+00  0.0000E+00  0.0000E+00  0.0000E+00
    -11.702  0.1774E-01  0.1774E-01  0.2292E-03  0.2292E-03  0.4628E-04  0.4628E-04  0.2463E-03  0.2463E-03  0.0000E+00  0.0000E+00  0.0000E+00  0.0000E+00  0.0000E+00  0.0000E+00  0.0000E+00  0.0000E+00  0.0000E+00  0.0000E+00
    -11.541  0.2075E-01  0.2075E-01  0.3290E-03  0.3290E-03  0.4943E-04  0.4943E-04  0.3440E-03  0.3440E-03  0.0000E+00  0.0000E+00  0.0000E+00  0.0000E+00  0.0000E+00  0.0000E+00  0.0000E+00  0.0000E+00  0.0000E+00  0.0000E+00
    -11.379  0.2440E-01  0.2440E-01  0.4489E-03  0.4489E-03  0.5484E-04  0.5484E-04  0.4640E-03  0.4640E-03  0.0000E+00  0.0000E+00  0.0000E+00  0.0000E+00  0.0000E+00  0.0000E+00  0.0000E+00  0.0000E+00  0.0000E+00  0.0000E+00
    -11.217  0.2722E-01  0.2722E-01  0.5851E-03  0.5851E-03  0.6681E-04  0.6681E-04  0.6051E-03  0.6051E-03  0.0000E+00  0.0000E+00  0.0000E+00  0.0000E+00  0.0000E+00  0.0000E+00  0.0000E+00  0.0000E+00  0.0000E+00  0.0000E+00
    -11.056  0.2736E-01  0.2736E-01  0.7267E-03  0.7267E-03  0.1087E-03  0.1088E-03  0.7440E-03  0.7440E-03  0.0000E+00  0.0000E+00  0.0000E+00  0.0000E+00  0.0000E+00  0.0000E+00  0.0000E+00  0.0000E+00  0.0000E+00  0.0000E+00
    -10.894  0.2801E-01  0.2801E-01  0.8726E-03  0.8726E-03  0.1498E-03  0.1498E-03  0.8912E-03  0.8912E-03  0.0000E+00  0.0000E+00  0.0000E+00  0.0000E+00  0.0000E+00  0.0000E+00  0.0000E+00  0.0000E+00  0.0000E+00  0.0000E+00
    -10.732  0.2871E-01  0.2871E-01  0.1022E-02  0.1022E-02  0.1894E-03  0.1894E-03  0.1046E-02  0.1046E-02  0.0000E+00  0.0000E+00  0.0000E+00  0.0000E+00  0.0000E+00  0.0000E+00  0.0000E+00  0.0000E+00  0.0000E+00  0.0000E+00
    -10.571  0.2925E-01  0.2925E-01  0.1171E-02  0.1171E-02  0.2243E-03  0.2243E-03  0.1198E-02  0.1198E-02  0.0000E+00  0.0000E+00  0.0000E+00  0.0000E+00  0.0000E+00  0.0000E+00  0.0000E+00  0.0000E+00  0.0000E+00  0.0000E+00
    -10.409  0.3013E-01  0.3013E-01  0.1333E-02  0.1333E-02  0.2572E-03  0.2572E-03  0.1358E-02  0.1358E-02  0.0000E+00  0.0000E+00  0.0000E+00  0.0000E+00  0.0000E+00  0.0000E+00  0.0000E+00  0.0000E+00  0.0000E+00  0.0000E+00
    -10.247  0.3125E-01  0.3125E-01  0.1517E-02  0.1517E-02  0.2901E-03  0.2901E-03  0.1527E-02  0.1527E-02  0.0000E+00  0.0000E+00  0.0000E+00  0.0000E+00  0.0000E+00  0.0000E+00  0.0000E+00  0.0000E+00  0.0000E+00  0.0000E+00
    -10.086  0.3288E-01  0.3288E-01  0.1680E-02  0.1680E-02  0.3191E-03  0.3191E-03  0.1699E-02  0.1699E-02  0.0000E+00  0.0000E+00  0.0000E+00  0.0000E+00  0.0000E+00  0.0000E+00  0.0000E+00  0.0000E+00  0.0000E+00  0.0000E+00
     -9.924  0.3576E-01  0.3576E-01  0.1854E-02  0.1854E-02  0.3438E-03  0.3438E-03  0.1889E-02  0.1889E-02  0.0000E+00  0.0000E+00  0.0000E+00  0.0000E+00  0.0000E+00  0.0000E+00  0.0000E+00  0.0000E+00  0.0000E+00  0.0000E+00
     -9.763  0.3876E-01  0.3876E-01  0.2086E-02  0.2086E-02  0.3633E-03  0.3633E-03  0.2105E-02  0.2105E-02  0.0000E+00  0.0000E+00  0.0000E+00  0.0000E+00  0.0000E+00  0.0000E+00  0.0000E+00  0.0000E+00  0.0000E+00  0.0000E+00
     -9.601  0.4206E-01  0.4206E-01  0.2328E-02  0.2328E-02  0.3771E-03  0.3771E-03  0.2341E-02  0.2341E-02  0.0000E+00  0.0000E+00  0.0000E+00  0.0000E+00  0.0000E+00  0.0000E+00  0.0000E+00  0.0000E+00  0.0000E+00  0.0000E+00
     -9.439  0.4471E-01  0.4471E-01  0.2567E-02  0.2567E-02  0.3828E-03  0.3828E-03  0.2587E-02  0.2587E-02  0.0000E+00  0.0000E+00  0.0000E+00  0.0000E+00  0.0000E+00  0.0000E+00  0.0000E+00  0.0000E+00  0.0000E+00  0.0000E+00
     -9.278  0.4432E-01  0.4432E-01  0.2801E-02  0.2801E-02  0.3783E-03  0.3783E-03  0.2832E-02  0.2832E-02  0.0000E+00  0.0000E+00  0.0000E+00  0.0000E+00  0.0000E+00  0.0000E+00  0.0000E+00  0.0000E+00  0.0000E+00  0.0000E+00
     -9.116  0.4380E-01  0.4380E-01  0.3030E-02  0.3030E-02  0.3752E-03  0.3752E-03  0.3075E-02  0.3075E-02  0.0000E+00  0.0000E+00  0.0000E+00  0.0000E+00  0.0000E+00  0.0000E+00  0.0000E+00  0.0000E+00  0.0000E+00  0.0000E+00
     -8.954  0.4363E-01  0.4363E-01  0.3346E-02  0.3346E-02  0.3672E-03  0.3672E-03  0.3350E-02  0.3350E-02  0.0000E+00  0.0000E+00  0.0000E+00  0.0000E+00  0.0000E+00  0.0000E+00  0.0000E+00  0.0000E+00  0.0000E+00  0.0000E+00
     -8.793  0.4352E-01  0.4352E-01  0.3599E-02  0.3599E-02  0.3632E-03  0.3632E-03  0.3602E-02  0.3602E-02  0.0000E+00  0.0000E+00  0.0000E+00  0.0000E+00  0.0000E+00  0.0000E+00  0.0000E+00  0.0000E+00  0.0000E+00  0.0000E+00
     -8.631  0.4333E-01  0.4333E-01  0.3836E-02  0.3836E-02  0.3592E-03  0.3592E-03  0.3849E-02  0.3849E-02  0.0000E+00  0.0000E+00  0.0000E+00  0.0000E+00  0.0000E+00  0.0000E+00  0.0000E+00  0.0000E+00  0.0000E+00  0.0000E+00
     -8.469  0.4300E-01  0.4300E-01  0.4072E-02  0.4072E-02  0.3539E-03  0.3539E-03  0.4086E-02  0.4086E-02  0.0000E+00  0.0000E+00  0.0000E+00  0.0000E+00  0.0000E+00  0.0000E+00  0.0000E+00  0.0000E+00  0.0000E+00  0.0000E+00
     -8.308  0.4253E-01  0.4253E-01  0.4296E-02  0.4296E-02  0.3531E-03  0.3531E-03  0.4310E-02  0.4310E-02  0.0000E+00  0.0000E+00  0.0000E+00  0.0000E+00  0.0000E+00  0.0000E+00  0.0000E+00  0.0000E+00  0.0000E+00  0.0000E+00
     -8.146  0.4248E-01  0.4248E-01  0.4609E-02  0.4609E-02  0.3488E-03  0.3488E-03  0.4574E-02  0.4574E-02  0.0000E+00  0.0000E+00  0.0000E+00  0.0000E+00  0.0000E+00  0.0000E+00  0.0000E+00  0.0000E+00  0.0000E+00  0.0000E+00
     -7.984  0.4245E-01  0.4245E-01  0.4897E-02  0.4897E-02  0.3402E-03  0.3402E-03  0.4832E-02  0.4832E-02  0.0000E+00  0.0000E+00  0.0000E+00  0.0000E+00  0.0000E+00  0.0000E+00  0.0000E+00  0.0000E+00  0.0000E+00  0.0000E+00
     -7.823  0.4229E-01  0.4229E-01  0.5134E-02  0.5134E-02  0.3367E-03  0.3367E-03  0.5068E-02  0.5068E-02  0.0000E+00  0.0000E+00  0.0000E+00  0.0000E+00  0.0000E+00  0.0000E+00  0.0000E+00  0.0000E+00  0.0000E+00  0.0000E+00
     -7.661  0.4199E-01  0.4199E-01  0.5343E-02  0.5343E-02  0.3356E-03  0.3356E-03  0.5287E-02  0.5287E-02  0.0000E+00  0.0000E+00  0.0000E+00  0.0000E+00  0.0000E+00  0.0000E+00  0.0000E+00  0.0000E+00  0.0000E+00  0.0000E+00
     -7.500  0.4163E-01  0.4163E-01  0.5538E-02  0.5538E-02  0.3363E-03  0.3363E-03  0.5489E-02  0.5489E-02  0.0000E+00  0.0000E+00  0.0000E+00  0.0000E+00  0.0000E+00  0.0000E+00  0.0000E+00  0.0000E+00  0.0000E+00  0.0000E+00
     -7.338  0.4167E-01  0.4167E-01  0.5809E-02  0.5809E-02  0.3309E-03  0.3309E-03  0.5714E-02  0.5714E-02  0.0000E+00  0.0000E+00  0.0000E+00  0.0000E+00  0.0000E+00  0.0000E+00  0.0000E+00  0.0000E+00  0.0000E+00  0.0000E+00
     -7.176  0.4190E-01  0.4190E-01  0.6120E-02  0.6120E-02  0.3246E-03  0.3246E-03  0.5952E-02  0.5952E-02  0.0000E+00  0.0000E+00  0.0000E+00  0.0000E+00  0.0000E+00  0.0000E+00  0.0000E+00  0.0000E+00  0.0000E+00  0.0000E+00
     -7.015  0.4200E-01  0.4200E-01  0.6360E-02  0.6360E-02  0.3227E-03  0.3227E-03  0.6142E-02  0.6142E-02  0.0000E+00  0.0000E+00  0.0000E+00  0.0000E+00  0.0000E+00  0.0000E+00  0.0000E+00  0.0000E+00  0.0000E+00  0.0000E+00
     -6.853  0.4216E-01  0.4216E-01  0.6560E-02  0.6560E-02  0.3227E-03  0.3227E-03  0.6296E-02  0.6296E-02  0.0000E+00  0.0000E+00  0.0000E+00  0.0000E+00  0.0000E+00  0.0000E+00  0.0000E+00  0.0000E+00  0.0000E+00  0.0000E+00
     -6.691  0.4255E-01  0.4255E-01  0.6732E-02  0.6732E-02  0.3248E-03  0.3248E-03  0.6405E-02  0.6405E-02  0.0000E+00  0.0000E+00  0.0000E+00  0.0000E+00  0.0000E+00  0.0000E+00  0.0000E+00  0.0000E+00  0.0000E+00  0.0000E+00
     -6.530  0.4316E-01  0.4316E-01  0.6877E-02  0.6877E-02  0.3280E-03  0.3280E-03  0.6477E-02  0.6477E-02  0.0000E+00  0.0000E+00  0.0000E+00  0.0000E+00  0.0000E+00  0.0000E+00  0.0000E+00  0.0000E+00  0.0000E+00  0.0000E+00