    4    4  100    2
  0.1028436E+02  0.2467291E-09  0.2467292E-09  0.7803073E-09  0.1500000E-16
   1.0000000000000000E-004
  CAR 
 unknown system                          
     16    111     16
 
  0.3742002E-15  0.3742002E-15  0.3742002E-15  0.7716049E-03
    1      -12.407517    -12.407520   1.000000   1.000000
    2       -9.488147     -9.488150   1.000000   1.000000
    3       -2.338848     -2.338850   1.000000   1.000000
    4        6.507813      6.507810   1.000000   1.000000
    5        6.662233      6.662229   1.000000   1.000000
    6        6.662294      6.662291   1.000000   1.000000
    7        7.039256      7.039253   1.000000   1.000000
    8        7.039315      7.039312   1.000000   1.000000
    9       18.720470     18.720465   0.000000   0.000000
   10       18.720531     18.720526   0.000000   0.000000
   11       19.387294     19.387292   0.000000   0.000000
   12       19.387363     19.387361   0.000000   0.000000
   13       20.450419     20.450417   0.000000   0.000000
   14       21.716178     21.716172   0.000000   0.000000
   15       23.929921     23.929918   0.000000   0.000000
   16       24.218263     24.218258   0.000000   0.000000
 
  0.5555556E-01  0.3821610E-15  0.3742002E-15  0.4629630E-02
    1      -12.324085    -12.324088   1.000000   1.000000
    2       -9.413584     -9.413587   1.000000   1.000000
    3       -2.237194     -2.237196   1.000000   1.000000
    4        6.290589      6.290585   1.000000   1.000000
    5        6.440822      6.440819   1.000000   1.000000
    6        6.588399      6.588396   1.000000   1.000000
    7        6.770953      6.770950   1.000000   1.000000
    8        6.896538      6.896535   1.000000   1.000000
    9       18.718886     18.718881   0.000000   0.000000
   10       19.075326     19.075321   0.000000   0.000000
   11       19.396737     19.396735   0.000000   0.000000
   12       19.761619     19.761617   0.000000   0.000000
   13       20.605660     20.605658   0.000000   0.000000
   14       21.354859     21.354854   0.000000   0.000000
   15       23.633091     23.633088   0.000000   0.000000
   16       24.365305     24.365300   0.000000   0.000000
 
  0.1111111E+00  0.3889703E-15  0.3742002E-15  0.4629630E-02
    1      -12.073974    -12.073977   1.000000   1.000000
    2       -9.190439     -9.190442   1.000000   1.000000
    3       -1.932874     -1.932876   1.000000   1.000000
    4        5.298635      5.298631   1.000000   1.000000
    5        5.889745      5.889742   1.000000   1.000000
    6        6.001158      6.001155   1.000000   1.000000
    7        6.484530      6.484527   1.000000   1.000000
    8        6.827457      6.827455   1.000000   1.000000
    9       18.606266     18.606262   0.000000   0.000000
   10       19.502393     19.502391   0.000000   0.000000
   11       20.078990     20.078985   0.000000   0.000000
   12       20.339275     20.339270   0.000000   0.000000
   13       20.803968     20.803966   0.000000   0.000000
   14       20.976301     20.976299   0.000000   0.000000
   15       22.805887     22.805883   0.000000   0.000000
   16       24.800384     24.800378   0.000000   0.000000
 
  0.1666667E+00  0.3636087E-15  0.3742002E-15  0.4629630E-02
    1      -11.658264    -11.658267   1.000000   1.000000
    2       -8.819332     -8.819334   1.000000   1.000000
    3       -1.427804     -1.427807   1.000000   1.000000
    4        3.902750      3.902746   1.000000   1.000000
    5        4.857506      4.857502   1.000000   1.000000
    6        5.188628      5.188625   1.000000   1.000000
    7        5.897913      5.897910   1.000000   1.000000
    8        7.214722      7.214720   1.000000   1.000000
    9       18.336387     18.336383   0.000000   0.000000
   10       18.818089     18.818084   0.000000   0.000000
   11       19.706748     19.706746   0.000000   0.000000
   12       21.443033     21.443032   0.000000   0.000000
   13       21.602464     21.602460   0.000000   0.000000
   14       21.638313     21.638309   0.000000   0.000000
   15       22.348288     22.348285   0.000000   0.000000
   16       25.423421     25.423414   0.000000   0.000000
 
  0.2222222E+00  0.3951816E-15  0.3742002E-15  0.4629630E-02
    1      -11.079055    -11.079058   1.000000   1.000000
    2       -8.302132     -8.302135   1.000000   1.000000
    3       -0.726007     -0.726009   1.000000   1.000000
    4        2.288640      2.288636   1.000000   1.000000
    5        3.491743      3.491740   1.000000   1.000000
    6        4.468390      4.468387   1.000000   1.000000
    7        5.257287      5.257283   1.000000   1.000000
    8        7.726303      7.726300   1.000000   1.000000
    9       16.982252     16.982247   0.000000   0.000000
   10       17.978912     17.978909   0.000000   0.000000
   11       19.927922     19.927920   0.000000   0.000000
   12       20.327908     20.327904   0.000000   0.000000
   13       21.967490     21.967489   0.000000   0.000000
   14       23.498831     23.498826   0.000000   0.000000
   15       24.235530     24.235527   0.000000   0.000000
   16       26.063279     26.063272   0.000000   0.000000
 
  0.2777778E+00  0.3860699E-15  0.3742002E-15  0.4629630E-02
    1      -10.338651    -10.338654   1.000000   1.000000
    2       -7.641274     -7.641277   1.000000   1.000000
    3        0.165857      0.165855   1.000000   1.000000
    4        0.586349      0.586345   1.000000   1.000000
    5        2.022799      2.022795   1.000000   1.000000
    6        3.811878      3.811875   1.000000   1.000000
    7        4.653488      4.653484   1.000000   1.000000
    8        8.303821      8.303819   1.000000   1.000000
    9       15.064138     15.064134   0.000000   0.000000
   10       17.611620     17.611617   0.000000   0.000000
   11       18.975806     18.975802   0.000000   0.000000
   12       20.107170     20.107168   0.000000   0.000000
   13       22.563672     22.563670   0.000000   0.000000
   14       25.646735     25.646730   0.000000   0.000000
   15       26.343068     26.343065   0.000000   0.000000
   16       26.582199     26.582193   0.000000   0.000000
 
  0.3333333E+00  0.3592851E-15  0.3742002E-15  0.4629630E-02
    1       -9.441328     -9.441331   1.000000   1.000000
    2       -6.841288     -6.841291   1.000000   1.000000
    3       -1.118622     -1.118625   1.000000   1.000000
    4        0.531390      0.531387   1.000000   1.000000
    5        1.234204      1.234202   1.000000   1.000000
    6        3.266904      3.266900   1.000000   1.000000
    7        4.143164      4.143161   1.000000   1.000000
    8        8.769138      8.769137   1.000000   1.000000
    9       13.378238     13.378233   0.000000   0.000000
   10       17.286824     17.286822   0.000000   0.000000
   11       17.620764     17.620760   0.000000   0.000000
   12       20.225778     20.225776   0.000000   0.000000
   13       23.252490     23.252489   0.000000   0.000000
   14       26.857278     26.857273   0.000000   0.000000
   15       27.898609     27.898603   0.000000   0.000000
   16       28.525711     28.525708   0.000000   0.000000
 
  0.3888889E+00  0.3906177E-15  0.3742002E-15  0.4629630E-02
    1       -8.393272     -8.393275   1.000000   1.000000
    2       -5.909488     -5.909491   1.000000   1.000000
    3       -2.767261     -2.767264   1.000000   1.000000
    4       -0.927512     -0.927516   1.000000   1.000000
    5        2.449038      2.449035   1.000000   1.000000
    6        2.862207      2.862203   1.000000   1.000000
    7        3.760274      3.760271   1.000000   1.000000
    8        8.615787      8.615787   1.000000   1.000000
    9       12.527731     12.527725   0.000000   0.000000
   10       16.285806     16.285802   0.000000   0.000000
   11       17.037334     17.037332   0.000000   0.000000
   12       20.290130     20.290127   0.000000   0.000000
   13       24.029624     24.029622   0.000000   0.000000
   14       26.783903     26.783900   0.000000   0.000000
   15       29.362933     29.362932   0.000000   0.000000
   16       30.076505     30.073878   0.000000   0.000000
 
  0.4444444E+00  0.3934861E-15  0.3742002E-15  0.4629630E-02
    1       -7.207914     -7.207917   1.000000   1.000000
    2       -4.916311     -4.916314   1.000000   1.000000
    3       -4.254751     -4.254754   1.000000   1.000000
    4       -2.316419     -2.316422   1.000000   1.000000
    5        2.613798      2.613795   1.000000   1.000000
    6        3.523818      3.523815   1.000000   1.000000
    7        3.711867      3.711864   1.000000   1.000000
    8        7.613143      7.613144   1.000000   1.000000
    9       12.856381     12.856374   0.000000   0.000000
   10       15.005430     15.005427   0.000000   0.000000
   11       16.881385     16.881383   0.000000   0.000000
   12       20.319083     20.319080   0.000000   0.000000
   13       24.858803     24.858801   0.000000   0.000000
   14       26.355339     26.355336   0.000000   0.000000
   15       29.033769     29.033768   0.000000   0.000000
   16       29.637468     29.637465   0.000000   0.000000
 
  0.5000000E+00  0.4815189E-15  0.3742002E-15  0.2314815E-02
    1       -6.110985     -6.110989   1.000000   1.000000
    2       -5.608712     -5.608714   1.000000   1.000000
    3       -3.668737     -3.668740   1.000000   1.000000
    4       -3.543007     -3.543009   1.000000   1.000000
    5        2.530160      2.530156   1.000000   1.000000
    6        3.443960      3.443956   1.000000   1.000000
    7        4.476953      4.476948   1.000000   1.000000
    8        6.850038      6.850041   1.000000   1.000000
    9       13.647859     13.647846   0.000000   0.000000
   10       13.978808     13.978811   0.000000   0.000000
   11       16.828878     16.828875   0.000000   0.000000
   12       20.327194     20.327191   0.000000   0.000000
   13       25.649031     25.649024   0.000000   0.000000
   14       25.690812     25.690815   0.000000   0.000000
   15       28.923976     28.923974   0.000000   0.000000
   16       29.476062     29.476059   0.000000   0.000000
 
  0.5555556E-01  0.5555556E-01  0.3742002E-15  0.4629630E-02
    1      -12.157281    -12.157283   1.000000   1.000000
    2       -9.264709     -9.264712   1.000000   1.000000
    3       -2.034114     -2.034116   1.000000   1.000000
    4        5.681787      5.681783   1.000000   1.000000
    5        5.932794      5.932791   1.000000   1.000000
    6        6.361315      6.361311   1.000000   1.000000
    7        6.558245      6.558242   1.000000   1.000000
    8        6.748427      6.748425   1.000000   1.000000
    9       18.790610     18.790605   0.000000   0.000000
   10       19.305868     19.305866   0.000000   0.000000
   11       19.825705     19.825700   0.000000   0.000000
   12       20.399803     20.399801   0.000000   0.000000
   13       20.674375     20.674370   0.000000   0.000000
   14       20.871319     20.871318   0.000000   0.000000
   15       23.061477     23.061474   0.000000   0.000000
   16       24.676557     24.676551   0.000000   0.000000
 
  0.1111111E+00  0.5555556E-01  0.3742002E-15  0.9259259E-02
    1      -11.824409    -11.824412   1.000000   1.000000
    2       -8.967661     -8.967664   1.000000   1.000000
    3       -1.629548     -1.629550   1.000000   1.000000
    4        4.563624      4.563620   1.000000   1.000000
    5        5.117463      5.117460   1.000000   1.000000
    6        5.576454      5.576451   1.000000   1.000000
    7        5.998373      5.998369   1.000000   1.000000
    8        7.062017      7.062014   1.000000   1.000000
    9       18.753130     18.753125   0.000000   0.000000
   10       19.438801     19.438797   0.000000   0.000000
   11       19.585106     19.585105   0.000000   0.000000
   12       20.831887     20.831882   0.000000   0.000000
   13       21.297121     21.297119   0.000000   0.000000
   14       21.573271     21.573269   0.000000   0.000000
   15       22.028486     22.028482   0.000000   0.000000
   16       25.308778     25.308771   0.000000   0.000000
 
  0.1666667E+00  0.5555556E-01  0.3742002E-15  0.9259259E-02
    1      -11.326984    -11.326987   1.000000   1.000000
    2       -8.523503     -8.523506   1.000000   1.000000
    3       -1.025895     -1.025897   1.000000   1.000000
    4        3.093801      3.093798   1.000000   1.000000
    5        4.063872      4.063869   1.000000   1.000000
    6        4.657173      4.657170   1.000000   1.000000
    7        5.356371      5.356367   1.000000   1.000000
    8        7.513968      7.513966   1.000000   1.000000
    9       17.800146     17.800141   0.000000   0.000000
   10       18.494040     18.494036   0.000000   0.000000
   11       19.957104     19.957102   0.000000   0.000000
   12       20.755997     20.755994   0.000000   0.000000
   13       21.767619     21.767618   0.000000   0.000000
   14       22.270966     22.270960   0.000000   0.000000
   15       23.167199     23.167196   0.000000   0.000000
   16       26.140352     26.140345   0.000000   0.000000
 
  0.2222222E+00  0.5555556E-01  0.3742002E-15  0.9259259E-02
    1      -10.667192    -10.667195   1.000000   1.000000
    2       -7.934505     -7.934508   1.000000   1.000000
    3       -0.228454     -0.228457   1.000000   1.000000
    4        1.454611      1.454608   1.000000   1.000000
    5        2.732157      2.732154   1.000000   1.000000
    6        3.880797      3.880794   1.000000   1.000000
    7        4.718885      4.718881   1.000000   1.000000
    8        8.068766      8.068764   1.000000   1.000000
    9       15.943952     15.943948   0.000000   0.000000
   10       18.152240     18.152237   0.000000   0.000000
   11       19.419901     19.419897   0.000000   0.000000
   12       20.261224     20.261222   0.000000   0.000000
   13       22.326102     22.326100   0.000000   0.000000
   14       23.910118     23.910112   0.000000   0.000000
   15       25.055105     25.055102   0.000000   0.000000
   16       27.058920     27.058914   0.000000   0.000000
 
  0.2777778E+00  0.5555556E-01  0.3742002E-15  0.9259259E-02
    1       -9.848386     -9.848389   1.000000   1.000000
    2       -7.204199     -7.204202   1.000000   1.000000
    3       -0.238530     -0.238533   1.000000   1.000000
    4        0.753012      0.753010   1.000000   1.000000
    5        1.284251      1.284248   1.000000   1.000000
    6        3.247552      3.247549   1.000000   1.000000
    7        4.154115      4.154112   1.000000   1.000000
    8        8.629364      8.629362   1.000000   1.000000
    9       14.118335     14.118331   0.000000   0.000000
   10       17.812510     17.812508   0.000000   0.000000
   11       18.086892     18.086888   0.000000   0.000000
   12       20.468725     20.468723   0.000000   0.000000
   13       22.953882     22.953881   0.000000   0.000000
   14       25.430096     25.430091   0.000000   0.000000
   15       27.108503     27.108500   0.000000   0.000000
   16       28.137392     28.137387   0.000000   0.000000
 
  0.3333333E+00  0.5555556E-01  0.3742002E-15  0.9259259E-02
    1       -8.875636     -8.875639   1.000000   1.000000
    2       -6.337877     -6.337879   1.000000   1.000000
    3       -1.910333     -1.910336   1.000000   1.000000
    4       -0.176575     -0.176578   1.000000   1.000000
    5        1.899346      1.899343   1.000000   1.000000
    6        2.758989      2.758986   1.000000   1.000000
    7        3.703888      3.703884   1.000000   1.000000
    8        8.879442      8.879442   1.000000   1.000000
    9       12.757218     12.757213   0.000000   0.000000
   10       16.774755     16.774751   0.000000   0.000000
   11       17.526138     17.526135   0.000000   0.000000
   12       20.587629     20.587626   0.000000   0.000000
   13       23.673733     23.673732   0.000000   0.000000
   14       26.289494     26.289490   0.000000   0.000000
   15       28.300411     28.300409   0.000000   0.000000
   16       29.185872     29.185869   0.000000   0.000000
 
  0.3888889E+00  0.5555556E-01  0.3742002E-15  0.9259259E-02
    1       -7.757708     -7.757711   1.000000   1.000000
    2       -5.351639     -5.351642   1.000000   1.000000
    3       -3.500666     -3.500669   1.000000   1.000000
    4       -1.593500     -1.593503   1.000000   1.000000
    5        2.426333      2.426330   1.000000   1.000000
    6        3.159343      3.159340   1.000000   1.000000
    7        3.392868      3.392864   1.000000   1.000000
    8        8.247954      8.247955   1.000000   1.000000
    9       12.528134     12.528128   0.000000   0.000000
   10       15.498585     15.498581   0.000000   0.000000
   11       17.322526     17.322524   0.000000   0.000000
   12       20.644927     20.644924   0.000000   0.000000
   13       24.462706     24.462705   0.000000   0.000000
   14       26.376095     26.376092   0.000000   0.000000
   15       27.690776     27.690775   0.000000   0.000000
   16       30.352417     30.352425   0.000000   0.000000
 
  0.4444444E+00  0.5555556E-01  0.3742002E-15  0.9259259E-02
    1       -6.525110     -6.525113   1.000000   1.000000
    2       -5.079243     -5.079245   1.000000   1.000000
    3       -4.134017     -4.134020   1.000000   1.000000
    4       -2.927983     -2.927986   1.000000   1.000000
    5        2.258078      2.258075   1.000000   1.000000
    6        3.234318      3.234315   1.000000   1.000000
    7        4.312705      4.312700   1.000000   1.000000
    8        7.156570      7.156572   1.000000   1.000000
    9       13.226052     13.226046   0.000000   0.000000
   10       14.293620     14.293616   0.000000   0.000000
   11       17.217458     17.217455   0.000000   0.000000
   12       20.666889     20.666886   0.000000   0.000000
   13       25.259117     25.259115   0.000000   0.000000
   14       25.953674     25.953672   0.000000   0.000000
   15       27.375890     27.375889   0.000000   0.000000
   16       30.196165     30.196172   0.000000   0.000000
 
  0.1111111E+00  0.1111111E+00  0.3742002E-15  0.4629630E-02
    1      -11.409795    -11.409797   1.000000   1.000000
    2       -8.597488     -8.597491   1.000000   1.000000
    3       -1.126087     -1.126089   1.000000   1.000000
    4        3.596480      3.596476   1.000000   1.000000
    5        4.048056      4.048053   1.000000   1.000000
    6        4.877432      4.877428   1.000000   1.000000
    7        5.196424      5.196420   1.000000   1.000000
    8        7.442156      7.442154   1.000000   1.000000
    9       18.136515     18.136511   0.000000   0.000000
   10       19.203310     19.203305   0.000000   0.000000
   11       19.766023     19.766024   0.000000   0.000000
   12       20.841443     20.841439   0.000000   0.000000
   13       21.504052     21.504049   0.000000   0.000000
   14       21.949522     21.949517   0.000000   0.000000
   15       22.481271     22.481269   0.000000   0.000000
   16       26.293413     26.293405   0.000000   0.000000
 
  0.1666667E+00  0.1111111E+00  0.3742002E-15  0.9259259E-02
    1      -10.831849    -10.831852   1.000000   1.000000
    2       -8.081675     -8.081678   1.000000   1.000000
    3       -0.426463     -0.426466   1.000000   1.000000
    4        2.247784      2.247780   1.000000   1.000000
    5        3.030585      3.030582   1.000000   1.000000
    6        3.871969      3.871966   1.000000   1.000000
    7        4.439323      4.439320   1.000000   1.000000
    8        7.946165      7.946163   1.000000   1.000000
    9       16.543440     16.543436   0.000000   0.000000
   10       19.222563     19.222559   0.000000   0.000000
   11       19.492774     19.492770   0.000000   0.000000
   12       20.376980     20.376980   0.000000   0.000000
   13       22.161939     22.161938   0.000000   0.000000
   14       22.733023     22.733016   0.000000   0.000000
   15       23.770762     23.770760   0.000000   0.000000
   16       27.550299     27.550291   0.000000   0.000000
 
  0.2222222E+00  0.1111111E+00  0.3742002E-15  0.9259259E-02
    1      -10.093702    -10.093705   1.000000   1.000000
    2       -7.423287     -7.423290   1.000000   1.000000
    3        0.462262      0.462259   1.000000   1.000000
    4        0.667198      0.667195   1.000000   1.000000
    5        1.913058      1.913055   1.000000   1.000000
    6        2.918869      2.918866   1.000000   1.000000
    7        3.801613      3.801610   1.000000   1.000000
    8        8.521706      8.521704   1.000000   1.000000
    9       14.798773     14.798769   0.000000   0.000000
   10       18.164393     18.164389   0.000000   0.000000
   11       18.967450     18.967447   0.000000   0.000000
   12       20.992647     20.992645   0.000000   0.000000
   13       22.826762     22.826761   0.000000   0.000000
   14       23.693985     23.693978   0.000000   0.000000
   15       25.451056     25.451054   0.000000   0.000000
   16       28.658736     28.658734   0.000000   0.000000
 
  0.2777778E+00  0.1111111E+00  0.3742002E-15  0.9259259E-02
    1       -9.199558     -9.199561   1.000000   1.000000
    2       -6.626565     -6.626568   1.000000   1.000000
    3       -0.971748     -0.971751   1.000000   1.000000
    4        0.588092      0.588089   1.000000   1.000000
    5        1.526685      1.526683   1.000000   1.000000
    6        2.248562      2.248559   1.000000   1.000000
    7        3.280549      3.280546   1.000000   1.000000
    8        9.008042      9.008041   1.000000   1.000000
    9       13.179460     13.179456   0.000000   0.000000
   10       16.906401     16.906396   0.000000   0.000000
   11       18.679909     18.679907   0.000000   0.000000
   12       21.366445     21.366443   0.000000   0.000000
   13       23.465663     23.465662   0.000000   0.000000
   14       24.796646     24.796640   0.000000   0.000000
   15       27.342985     27.342982   0.000000   0.000000
   16       27.558772     27.558771   0.000000   0.000000
 
  0.3333333E+00  0.1111111E+00  0.3742002E-15  0.9259259E-02
    1       -8.156308     -8.156310   1.000000   1.000000
    2       -5.700808     -5.700811   1.000000   1.000000
    3       -2.581132     -2.581135   1.000000   1.000000
    4       -0.797013     -0.797016   1.000000   1.000000
    5        1.799781      1.799778   1.000000   1.000000
    6        2.736828      2.736825   1.000000   1.000000
    7        2.895375      2.895372   1.000000   1.000000
    8        8.894374      8.894375   1.000000   1.000000
    9       12.305833     12.305829   0.000000   0.000000
   10       15.711852     15.711847   0.000000   0.000000
   11       18.440523     18.440521   0.000000   0.000000
   12       21.547543     21.547541   0.000000   0.000000
   13       24.165049     24.165048   0.000000   0.000000
   14       25.601512     25.601508   0.000000   0.000000
   15       26.700635     26.700635   0.000000   0.000000
   16       29.295365     29.295362   0.000000   0.000000
 
  0.3888889E+00  0.1111111E+00  0.3742002E-15  0.9259259E-02
    1       -6.978618     -6.978621   1.000000   1.000000
    2       -4.720191     -4.720194   1.000000   1.000000
    3       -4.040139     -4.040142   1.000000   1.000000
    4       -2.147284     -2.147287   1.000000   1.000000
    5        1.535473      1.535470   1.000000   1.000000
    6        2.659401      2.659398   1.000000   1.000000
    7        3.995632      3.995628   1.000000   1.000000
    8        7.888255      7.888257   1.000000   1.000000
    9       12.593021     12.593017   0.000000   0.000000
   10       14.583762     14.583755   0.000000   0.000000
   11       18.285933     18.285931   0.000000   0.000000
   12       21.621295     21.621293   0.000000   0.000000
   13       24.885961     24.885960   0.000000   0.000000
   14       25.821167     25.821164   0.000000   0.000000
   15       26.154201     26.154201   0.000000   0.000000
   16       29.293565     29.293571   0.000000   0.000000
 
  0.4444444E+00  0.1111111E+00  0.3742002E-15  0.4629630E-02
    1       -5.896917     -5.896921   1.000000   1.000000
    2       -5.383321     -5.383323   1.000000   1.000000
    3       -3.479050     -3.479054   1.000000   1.000000
    4       -3.348874     -3.348877   1.000000   1.000000
    5        1.447748      1.447745   1.000000   1.000000
    6        2.579994      2.579990   1.000000   1.000000
    7        4.759970      4.759964   1.000000   1.000000
    8        7.119119      7.119122   1.000000   1.000000
    9       13.239525     13.239528   0.000000   0.000000
   10       13.745275     13.745262   0.000000   0.000000
   11       18.233100     18.233098   0.000000   0.000000
   12       21.640597     21.640594   0.000000   0.000000
   13       25.467192     25.467195   0.000000   0.000000
   14       25.543463     25.543456   0.000000   0.000000
   15       25.966560     25.966560   0.000000   0.000000
   16       29.194271     29.194278   0.000000   0.000000
 
  0.1666667E+00  0.1666667E+00  0.3742002E-15  0.4629630E-02
    1      -10.175564    -10.175566   1.000000   1.000000
    2       -7.496524     -7.496527   1.000000   1.000000
    3        0.364977      0.364975   1.000000   1.000000
    4        1.295568      1.295565   1.000000   1.000000
    5        1.861445      1.861442   1.000000   1.000000
    6        3.008673      3.008669   1.000000   1.000000
    7        3.391231      3.391228   1.000000   1.000000
    8        8.482108      8.482106   1.000000   1.000000
    9       15.101939     15.101935   0.000000   0.000000
   10       18.111027     18.111022   0.000000   0.000000
   11       20.124669     20.124663   0.000000   0.000000
   12       20.755742     20.755745   0.000000   0.000000
   13       22.595625     22.595622   0.000000   0.000000
   14       23.506470     23.506462   0.000000   0.000000
   15       24.327062     24.327062   0.000000   0.000000
   16       28.548504     28.548503   0.000000   0.000000
 
  0.2222222E+00  0.1666667E+00  0.3742002E-15  0.9259259E-02
    1       -9.362198     -9.362201   1.000000   1.000000
    2       -6.771855     -6.771858   1.000000   1.000000
    3       -0.053795     -0.053798   1.000000   1.000000
    4        0.920271      0.920268   1.000000   1.000000
    5        1.338628      1.338626   1.000000   1.000000
    6        1.932752      1.932749   1.000000   1.000000
    7        2.653623      2.653619   1.000000   1.000000
    8        9.048700      9.048699   1.000000   1.000000
    9       13.551034     13.551031   0.000000   0.000000
   10       16.822096     16.822090   0.000000   0.000000
   11       20.211608     20.211604   0.000000   0.000000
   12       21.714167     21.714168   0.000000   0.000000
   13       23.261508     23.261504   0.000000   0.000000
   14       23.991091     23.991085   0.000000   0.000000
   15       25.565273     25.565272   0.000000   0.000000
   16       27.337097     27.337096   0.000000   0.000000
 
  0.2777778E+00  0.1666667E+00  0.3742002E-15  0.9259259E-02
    1       -8.397426     -8.397429   1.000000   1.000000
    2       -5.914715     -5.914718   1.000000   1.000000
    3       -1.590001     -1.590004   1.000000   1.000000
    4       -0.087513     -0.087516   1.000000   1.000000
    5        1.053027      1.053024   1.000000   1.000000
    6        2.165195      2.165191   1.000000   1.000000
    7        2.475175      2.475172   1.000000   1.000000
    8        9.384318      9.384318   0.999298   0.999298
    9       12.213048     12.213045   0.000000   0.000000
   10       15.692854     15.692847   0.000000   0.000000
   11       20.003788     20.003786   0.000000   0.000000
   12       22.571874     22.571873   0.000000   0.000000
   13       24.048881     24.048878   0.000000   0.000000
   14       24.399732     24.399726   0.000000   0.000000
   15       26.317295     26.317295   0.000000   0.000000
   16       27.324094     27.324092   0.000000   0.000000
 
  0.3333333E+00  0.1666667E+00  0.3742002E-15  0.9259259E-02
    1       -7.291789     -7.291792   1.000000   1.000000
    2       -4.944880     -4.944883   1.000000   1.000000
    3       -3.107250     -3.107253   1.000000   1.000000
    4       -1.318899     -1.318902   1.000000   1.000000
    5        0.584248      0.584245   1.000000   1.000000
    6        1.844061      1.844058   1.000000   1.000000
    7        3.724431      3.724428   1.000000   1.000000
    8        8.803605      8.803606   1.000662   1.000663
    9       11.863983     11.863981   0.000000   0.000000
   10       14.716735     14.716726   0.000000   0.000000
   11       19.815040     19.815038   0.000000   0.000000
   12       22.973598     22.973596   0.000000   0.000000
   13       24.652972     24.652971   0.000000   0.000000
   14       25.048889     25.048883   0.000000   0.000000
   15       25.561072     25.561073   0.000000   0.000000
   16       28.258875     28.258881   0.000000   0.000000
 
  0.3888889E+00  0.1666667E+00  0.3742002E-15  0.9259259E-02
    1       -6.079897     -6.079900   1.000000   1.000000
    2       -4.658155     -4.658157   1.000000   1.000000
    3       -3.733296     -3.733299   1.000000   1.000000
    4       -2.575256     -2.575259   1.000000   1.000000
    5        0.378697      0.378694   1.000000   1.000000
    6        1.683338      1.683334   1.000000   1.000000
    7        4.870308      4.870303   1.000000   1.000000
    8        7.690888      7.690890   1.000000   1.000000
    9       12.247175     12.247177   0.000000   0.000000
   10       13.977957     13.977945   0.000000   0.000000
   11       19.710822     19.710819   0.000000   0.000000
   12       23.097248     23.097244   0.000000   0.000000
   13       25.119345     25.119346   0.000000   0.000000
   14       25.155193     25.155194   0.000000   0.000000
   15       25.377138     25.377132   0.000000   0.000000
   16       28.000070     28.000076   0.000000   0.000000
 
  0.2222222E+00  0.2222222E+00  0.3742002E-15  0.4629630E-02