       N       E                     dE             d eps       ncg     rms          rms(c)
DAV:   1    -0.309809205783E+03   -0.30981E+03   -0.12067E+04 10632   0.828E+02
DAV:   2    -0.373415336479E+03   -0.63606E+02   -0.57994E+02 10248   0.215E+02
DAV:   3    -0.376253428409E+03   -0.28381E+01   -0.28131E+01  9000   0.444E+01
DAV:   4    -0.376360508406E+03   -0.10708E+00   -0.10705E+00 10296   0.823E+00
DAV:   5    -0.376362043256E+03   -0.15348E-02   -0.15350E-02  9184   0.837E-01    0.496E+01
DAV:   6    -0.177896888841E+03    0.19847E+03   -0.48649E+01  7104   0.452E+01    0.296E+01
DAV:   7    -0.380579364249E+02    0.13984E+03   -0.20988E+02  9152   0.774E+01    0.104E+01
DAV:   8    -0.380100700183E+02    0.47866E-01   -0.71507E+00  9200   0.165E+01    0.426E+00
DAV:   9    -0.368384570266E+02    0.11716E+01   -0.19848E+00  9160   0.854E+00    0.109E+00
DAV:  10    -0.368630312341E+02   -0.24574E-01   -0.15120E-01  7672   0.306E+00    0.445E-01
DAV:  11    -0.368876228768E+02   -0.24592E-01   -0.79248E-02  7360   0.222E+00    0.344E-01
DAV:  12    -0.369112402149E+02   -0.23617E-01   -0.11879E-02  7368   0.102E+00    0.158E-01
DAV:  13    -0.369114006627E+02   -0.16045E-03   -0.32405E-03  8080   0.415E-01    0.430E-02
DAV:  14    -0.369116144769E+02   -0.21381E-03   -0.38805E-04  8168   0.154E-01    0.240E-02
DAV:  15    -0.369116488888E+02   -0.34412E-04   -0.25859E-05  8104   0.429E-02    0.164E-02
DAV:  16    -0.369116812692E+02   -0.32380E-04   -0.31780E-05  7464   0.436E-02    0.361E-03
DAV:  17    -0.369116840100E+02   -0.27408E-05   -0.52861E-06  8352   0.145E-02    0.165E-03
DAV:  18    -0.369116842080E+02   -0.19801E-06   -0.32162E-07  6104   0.467E-03
   1 F= -.11235734E+02 E0= -.11235734E+02  d E =-.112357E+02  mag=     0.0000
       N       E                     dE             d eps       ncg     rms          rms(c)
DAV:   1    -0.369067308771E+02    0.49531E-02   -0.43088E-01  7912   0.508E+00    0.539E-01
DAV:   2    -0.368991759371E+02    0.75549E-02   -0.10170E-02  8968   0.636E-01    0.282E-01
DAV:   3    -0.368964062326E+02    0.27697E-02   -0.61897E-03  8480   0.469E-01    0.243E-02
DAV:   4    -0.368964145423E+02   -0.83097E-05   -0.13522E-04  8400   0.760E-02    0.122E-02
DAV:   5    -0.368964157201E+02   -0.11778E-05   -0.54398E-06  7760   0.206E-02    0.120E-03
DAV:   6    -0.368964157916E+02   -0.71511E-07   -0.18837E-07  7288   0.337E-03
   2 F= -.11940043E+02 E0= -.11940043E+02  d E =-.704309E+00  mag=     0.0000
       N       E                     dE             d eps       ncg     rms          rms(c)
DAV:   1    -0.366044004426E+02    0.29202E+00   -0.40794E+00  7928   0.161E+01    0.166E+00
DAV:   2    -0.365335790820E+02    0.70821E-01   -0.10084E-01  8816   0.203E+00    0.870E-01
DAV:   3    -0.365077262561E+02    0.25853E-01   -0.57019E-02  8328   0.146E+00    0.776E-02
DAV:   4    -0.365077673262E+02   -0.41070E-04   -0.13548E-03  8280   0.242E-01    0.391E-02
DAV:   5    -0.365077539322E+02    0.13394E-04   -0.49362E-05  7936   0.644E-02    0.374E-03
DAV:   6    -0.365077550061E+02   -0.10739E-05   -0.18561E-06  8984   0.102E-02    0.241E-03
DAV:   7    -0.365077554272E+02   -0.42110E-06   -0.38638E-07  6048   0.481E-03
   3 F= -.13629203E+02 E0= -.13629203E+02  d E =-.239347E+01  mag=     0.0000
       N       E                     dE             d eps       ncg     rms          rms(c)
DAV:   1    -0.342390209567E+02    0.22687E+01   -0.18033E+01  7792   0.361E+01    0.353E+00
DAV:   2    -0.339301356362E+02    0.30889E+00   -0.48303E-01  8720   0.463E+00    0.184E+00
DAV:   3    -0.338181379221E+02    0.11200E+00   -0.23884E-01  7936   0.317E+00    0.178E-01
DAV:   4    -0.338181522076E+02   -0.14286E-04   -0.68205E-03  8640   0.548E-01    0.962E-02
DAV:   5    -0.338179682669E+02    0.18394E-03   -0.23658E-04  7776   0.145E-01    0.166E-02
DAV:   6    -0.338179767370E+02   -0.84701E-05   -0.16781E-05  8808   0.287E-02    0.457E-03
DAV:   7    -0.338179772466E+02   -0.50959E-06   -0.10749E-06  7528   0.832E-03
   4 F= -.14742592E+02 E0= -.14742592E+02  d E =-.350686E+01  mag=    -0.0000
       N       E                     dE             d eps       ncg     rms          rms(c)
DAV:   1    -0.345583867460E+02   -0.74041E+00   -0.59727E-01  7840   0.643E+00    0.636E-01
DAV:   2    -0.345476408061E+02    0.10746E-01   -0.14556E-02  8520   0.818E-01    0.335E-01
DAV:   3    -0.345435616924E+02    0.40791E-02   -0.85142E-03  8240   0.591E-01    0.308E-02
DAV:   4    -0.345435591918E+02    0.25007E-05   -0.24658E-04  8560   0.103E-01    0.167E-02
DAV:   5    -0.345435459682E+02    0.13224E-04   -0.85574E-06  7712   0.280E-02    0.179E-03
DAV:   6    -0.345435459853E+02   -0.17104E-07   -0.17503E-07  7184   0.320E-03
   5 F= -.14797392E+02 E0= -.14797392E+02  d E =-.356166E+01  mag=    -0.0000
       N       E                     dE             d eps       ncg     rms          rms(c)
DAV:   1    -0.347814953895E+02   -0.23795E+00   -0.31858E+00  7216   0.125E+01    0.131E+00
DAV:   2    -0.347038340920E+02    0.77661E-01   -0.99111E-02  7984   0.210E+00    0.727E-01
DAV:   3    -0.346715611432E+02    0.32273E-01   -0.77342E-02  8192   0.180E+00    0.124E-01
DAV:   4    -0.346716513386E+02   -0.90195E-04   -0.34517E-03  8224   0.373E-01    0.783E-02
DAV:   5    -0.346716085199E+02    0.42819E-04   -0.26215E-04  7904   0.133E-01    0.887E-03
DAV:   6    -0.346716128068E+02   -0.42869E-05   -0.66546E-06  9208   0.186E-02    0.636E-03
DAV:   7    -0.346716180335E+02   -0.52267E-05   -0.30383E-06  7608   0.119E-02    0.241E-03
DAV:   8    -0.346716184319E+02   -0.39842E-06   -0.26954E-07  6608   0.455E-03
   6 F= -.15318404E+02 E0= -.15318404E+02  d E =-.521012E+00  mag=    -0.0000
       N       E                     dE             d eps       ncg     rms          rms(c)
DAV:   1    -0.360015306125E+02   -0.13299E+01   -0.30778E+01  7120   0.400E+01    0.415E+00
DAV:   2    -0.352869271413E+02    0.71460E+00   -0.96859E-01  7936   0.669E+00    0.227E+00
DAV:   3    -0.349998109335E+02    0.28712E+00   -0.63375E-01  8040   0.531E+00    0.326E-01
DAV:   4    -0.350006394295E+02   -0.82850E-03   -0.30192E-02  8184   0.110E+00    0.167E-01
DAV:   5    -0.350002408925E+02    0.39854E-03   -0.14354E-03  8120   0.314E-01    0.231E-02
DAV:   6    -0.350002382802E+02    0.26122E-05   -0.46119E-05  8976   0.497E-02    0.131E-02
DAV:   7    -0.350002542749E+02   -0.15995E-04   -0.10839E-05  7488   0.229E-02    0.690E-03
DAV:   8    -0.350002596081E+02   -0.53332E-05   -0.38719E-06  7920   0.169E-02    0.105E-03
DAV:   9    -0.350002596909E+02   -0.82777E-07   -0.10252E-07  4608   0.224E-03
   7 F= -.16852322E+02 E0= -.16852322E+02  d E =-.205493E+01  mag=    -0.0000
       N       E                     dE             d eps       ncg     rms          rms(c)
DAV:   1    -0.391058349729E+02   -0.41056E+01   -0.14645E+02  7104   0.935E+01    0.928E+00
DAV:   2    -0.363717878368E+02    0.27340E+01   -0.50682E+00  8464   0.161E+01    0.507E+00
DAV:   3    -0.351768681981E+02    0.11949E+01   -0.23215E+00  8496   0.108E+01    0.612E-01
DAV:   4    -0.351771004855E+02   -0.23229E-03   -0.11093E-01  8464   0.222E+00    0.268E-01
DAV:   5    -0.351748754472E+02    0.22250E-02   -0.36695E-03  8640   0.491E-01    0.434E-02
DAV:   6    -0.351748354511E+02    0.39996E-04   -0.24244E-04  8576   0.110E-01    0.230E-02
DAV:   7    -0.351748537734E+02   -0.18322E-04   -0.30352E-05  8048   0.449E-02    0.877E-03
DAV:   8    -0.351748532384E+02    0.53503E-06   -0.24523E-06  8744   0.126E-02
   8 F= -.19558010E+02 E0= -.19558010E+02  d E =-.476062E+01  mag=     0.0000
       N       E                     dE             d eps       ncg     rms          rms(c)
DAV:   1    -0.232029128044E+02    0.11972E+02   -0.99251E+02  8400   0.301E+02    0.217E+01
DAV:   2    -0.283842053754E+02   -0.51813E+01   -0.10250E+02  9456   0.655E+01    0.147E+01
DAV:   3    -0.245419672230E+02    0.38422E+01   -0.12027E+01  8480   0.260E+01    0.473E+00
DAV:   4    -0.240070348945E+02    0.53493E+00   -0.11985E+00  8032   0.855E+00    0.119E+00
DAV:   5    -0.239754683010E+02    0.31567E-01   -0.33557E-02  8768   0.153E+00    0.203E-01
DAV:   6    -0.239747341247E+02    0.73418E-03   -0.12745E-03  8448   0.294E-01    0.574E-02
DAV:   7    -0.239749476322E+02   -0.21351E-03   -0.15987E-04  8608   0.102E-01    0.597E-02
DAV:   8    -0.239748001584E+02    0.14747E-03   -0.76894E-05  8384   0.664E-02    0.128E-02
DAV:   9    -0.239747724674E+02    0.27691E-04   -0.83948E-06  9328   0.229E-02    0.173E-03
DAV:  10    -0.239747733437E+02   -0.87627E-06   -0.15554E-07  4432   0.378E-03
   9 F= -.13914686E+02 E0= -.13914686E+02  d E =0.882706E+00  mag=    -0.0000
       N       E                     dE             d eps       ncg     rms          rms(c)
DAV:   1    -0.541068806445E+02   -0.30132E+02   -0.68181E+02  7200   0.165E+02    0.174E+01
DAV:   2    -0.417244837844E+02    0.12382E+02   -0.28008E+01  9872   0.383E+01    0.108E+01
DAV:   3    -0.350415042608E+02    0.66830E+01   -0.18640E+01  9424   0.278E+01    0.299E+00
DAV:   4    -0.348304314043E+02    0.21107E+00   -0.12807E+00  7936   0.685E+00    0.133E+00
DAV:   5    -0.348066002426E+02    0.23831E-01   -0.35541E-02  8928   0.146E+00    0.683E-01
DAV:   6    -0.347960097951E+02    0.10590E-01   -0.34381E-02  8600   0.140E+00    0.131E-01
DAV:   7    -0.347957691695E+02    0.24063E-03   -0.15426E-03  8672   0.286E-01    0.697E-02
DAV:   8    -0.347956467551E+02    0.12241E-03   -0.18096E-04  8360   0.970E-02    0.120E-02
DAV:   9    -0.347956430149E+02    0.37401E-05   -0.12876E-05  9376   0.277E-02    0.182E-03
DAV:  10    -0.347956431825E+02   -0.16752E-06   -0.18872E-07  4616   0.328E-03
  10 F= -.20298298E+02 E0= -.20298298E+02  d E =-.550091E+01  mag=    -0.0000
       N       E                     dE             d eps       ncg     rms          rms(c)
DAV:   1    -0.346573181220E+02    0.13832E+00   -0.31681E+01  8128   0.428E+01    0.428E+00
DAV:   2    -0.341647107907E+02    0.49261E+00   -0.10632E+00  9280   0.712E+00    0.242E+00
DAV:   3    -0.339195882523E+02    0.24512E+00   -0.51935E-01  9040   0.510E+00    0.331E-01
DAV:   4    -0.339176664539E+02    0.19218E-02   -0.19948E-02  8528   0.103E+00    0.124E-01
DAV:   5    -0.339171851479E+02    0.48131E-03   -0.92558E-04  9064   0.244E-01    0.317E-02
DAV:   6    -0.339171574330E+02    0.27715E-04   -0.61709E-05  8416   0.554E-02    0.894E-03
DAV:   7    -0.339171595528E+02   -0.21199E-05   -0.21876E-06  9048   0.125E-02    0.228E-03
DAV:   8    -0.339171608149E+02   -0.12620E-05   -0.18306E-07  4336   0.382E-03    0.101E-03
DAV:   9    -0.339171609334E+02   -0.11846E-06   -0.21111E-08  3968   0.133E-03
  11 F= -.20483518E+02 E0= -.20483518E+02  d E =-.568613E+01  mag=    -0.0000
       N       E                     dE             d eps       ncg     rms          rms(c)
DAV:   1    -0.342205025426E+02   -0.30334E+00   -0.17318E+00  7824   0.952E+00    0.992E-01
DAV:   2    -0.341888358044E+02    0.31667E-01   -0.44202E-02  9456   0.151E+00    0.552E-01
DAV:   3    -0.341751910591E+02    0.13645E-01   -0.27689E-02  8880   0.116E+00    0.670E-02
DAV:   4    -0.341751436885E+02    0.47371E-04   -0.85073E-04  8496   0.209E-01    0.402E-02
DAV:   5    -0.341750905522E+02    0.53136E-04   -0.63443E-05  8976   0.633E-02    0.553E-03
DAV:   6    -0.341750897438E+02    0.80849E-06   -0.22536E-06  8272   0.117E-02
  12 F= -.20499483E+02 E0= -.20499483E+02  d E =-.570209E+01  mag=    -0.0000
       N       E                     dE             d eps       ncg     rms          rms(c)
DAV:   1    -0.341438851772E+02    0.31205E-01   -0.30246E-02  8016   0.127E+00    0.132E-01
DAV:   2    -0.341433168544E+02    0.56832E-03   -0.76596E-04  9304   0.201E-01    0.733E-02
DAV:   3    -0.341430547465E+02    0.26211E-03   -0.47875E-04  9016   0.153E-01    0.872E-03
DAV:   4    -0.341430560300E+02   -0.12835E-05   -0.14758E-05  8352   0.276E-02    0.490E-03
DAV:   5    -0.341430566842E+02   -0.65421E-06   -0.95797E-07  6008   0.804E-03
  13 F= -.20499610E+02 E0= -.20499610E+02  d E =-.570222E+01  mag=     0.0000
       N       E                     dE             d eps       ncg     rms          rms(c)
DAV:   1    -0.344277099447E+02   -0.28465E+00   -0.17219E-01  8472   0.359E+00    0.323E-01
DAV:   2    -0.344259434199E+02    0.17665E-02   -0.31303E-03  8440   0.395E-01    0.178E-01
DAV:   3    -0.344251584959E+02    0.78492E-03   -0.11412E-03  8608   0.229E-01    0.157E-02
DAV:   4    -0.344251430625E+02    0.15433E-04   -0.28028E-05  8296   0.382E-02    0.622E-03
DAV:   5    -0.344251404349E+02    0.26276E-05   -0.61175E-07  6472   0.713E-03    0.136E-03
DAV:   6    -0.344251403831E+02    0.51811E-07   -0.10942E-07  3984   0.308E-03
  14 F= -.20512330E+02 E0= -.20512330E+02  d E =-.127199E-01  mag=     0.0000
       N       E                     dE             d eps       ncg     rms          rms(c)
DAV:   1    -0.343728419082E+02    0.52299E-01   -0.66931E-03  8504   0.709E-01    0.638E-02
DAV:   2    -0.343727663561E+02    0.75552E-04   -0.12593E-04  8488   0.787E-02    0.352E-02
DAV:   3    -0.343727307018E+02    0.35654E-04   -0.43763E-05  8552   0.448E-02    0.315E-03
DAV:   4    -0.343727319643E+02   -0.12625E-05   -0.10405E-06  6192   0.746E-03    0.127E-03
DAV:   5    -0.343727321778E+02   -0.21350E-06   -0.39328E-08  3872   0.182E-03
  15 F= -.20513122E+02 E0= -.20513122E+02  d E =-.135117E-01  mag=     0.0000
