 vasp.5.4.4.18Apr17-6-g9f103f2a35 (build Jul  5 2023 12:24:19) complex           
 executed on NVIDIA22.7_CrayMPICH date 2023.10.16  23:30:57
 running on   16 total cores
 distrk:  each k-point on   16 cores,    1 groups
 distr:  one band on NCORES_PER_BAND=   4 cores,    4 groups


--------------------------------------------------------------------------------------------------------


 INCAR:
 POTCAR:   PAW_PBE C 08Apr2002                    
 POTCAR:   PAW_PBE C 08Apr2002                    
  local pseudopotential read in
  atomic valenz-charges read in
  non local Contribution for L=            0  read in
    real space projection operators read in
  non local Contribution for L=            0  read in
    real space projection operators read in
  non local Contribution for L=            1  read in
    real space projection operators read in
  non local Contribution for L=            1  read in
    real space projection operators read in
    PAW grid and wavefunctions read in
 
   number of l-projection  operators is LMAX  =            4
   number of lm-projection operators is LMMAX =            8
 
 PAW_PBE C 08Apr2002                    :
 energy of atom  1       EATOM= -147.1560
 kinetic energy error for atom=    0.0288 (will be added to EATOM!!)
 
 
 POSCAR: C4                                      
  positions in direct lattice
  No initial velocities read in
 exchange correlation table for  LEXCH =        8
   RHO(1)=    0.500       N(1)  =     2000
   RHO(2)=  100.500       N(2)  =     4000
 


--------------------------------------------------------------------------------------------------------


 ion  position               nearest neighbor table
   1  0.000  0.000  0.250-   3 1.42   3 1.42   3 1.42
   2  0.000  0.000  0.750-   4 1.42   4 1.42   4 1.42
   3  0.333  0.667  0.250-   1 1.42   1 1.42   1 1.42
   4  0.667  0.333  0.750-   2 1.42   2 1.42   2 1.42
 
  LATTYP: Found a hexagonal cell.
 ALAT       =     2.4672910232
 C/A-ratio  =     3.1626074616
  
  Lattice vectors:
  
 A1 = (   2.4672910000,   0.0000000000,   0.0000000000)
 A2 = (  -1.2336460000,   2.1367370000,   0.0000000000)
 A3 = (   0.0000000000,   0.0000000000,   7.8030730000)


Analysis of symmetry for initial positions (statically):
=====================================================================
 Subroutine PRICEL returns:
 Original cell was already a primitive cell.
 

 Routine SETGRP: Setting up the symmetry group for a 
 hexagonal supercell.


 Subroutine GETGRP returns: Found 24 space group operations
 (whereof 12 operations were pure point group operations)
 out of a pool of 24 trial point group operations.


The static configuration has the point symmetry D_3d.
 The point group associated with its full space group is D_6h.


Analysis of symmetry for dynamics (positions and initial velocities):
=====================================================================
 Subroutine PRICEL returns:
 Original cell was already a primitive cell.
 

 Routine SETGRP: Setting up the symmetry group for a 
 hexagonal supercell.


 Subroutine GETGRP returns: Found 24 space group operations
 (whereof 12 operations were pure point group operations)
 out of a pool of 24 trial point group operations.


The dynamic configuration has the point symmetry D_3d.
 The point group associated with its full space group is D_6h.


Analysis of structural, dynamic, and magnetic symmetry:
=====================================================================
 Subroutine PRICEL returns:
 Original cell was already a primitive cell.
 

 Routine SETGRP: Setting up the symmetry group for a 
 hexagonal supercell.


 Subroutine GETGRP returns: Found 24 space group operations
 (whereof 12 operations were pure point group operations)
 out of a pool of 24 trial point group operations.


The magnetic configuration has the point symmetry D_3d.
 The point group associated with its full space group is D_6h.


 Subroutine INISYM returns: Found 24 space group operations
 (whereof 12 operations are pure point group operations),
 and found     1 'primitive' translations

 
 
 KPOINTS: kpt_density=6000                        

Automatic generation of k-mesh.
Space group operators:
 irot       det(A)        alpha          n_x          n_y          n_z        tau_x        tau_y        tau_z
    1     1.000000     0.000000     1.000000     0.000000     0.000000     0.000000     0.000000     0.000000
    2    -1.000000     0.000000     1.000000     0.000000     0.000000     0.000000     0.000000     0.000000
    3     1.000000   120.000000     0.000000     0.000000    -1.000000     0.000000     0.000000     0.000000
    4    -1.000000   120.000000     0.000000     0.000000    -1.000000     0.000000     0.000000     0.000000
    5     1.000000   120.000000     0.000000     0.000000     1.000000     0.000000     0.000000     0.000000
    6    -1.000000   120.000000     0.000000     0.000000     1.000000     0.000000     0.000000     0.000000
    7     1.000000   180.000000     1.000000     0.000000     0.000000     0.000000     0.000000     0.000000
    8    -1.000000   180.000000     1.000000     0.000000     0.000000     0.000000     0.000000     0.000000
    9     1.000000   179.999999     0.500000    -0.866025     0.000000     0.000000     0.000000     0.000000
   10    -1.000000   179.999999     0.500000    -0.866025     0.000000     0.000000     0.000000     0.000000
   11     1.000000   180.000000    -0.500000    -0.866025     0.000000     0.000000     0.000000     0.000000
   12    -1.000000   180.000000    -0.500000    -0.866025     0.000000     0.000000     0.000000     0.000000
   13     1.000000    60.000000     0.000000     0.000000    -1.000000     0.000001     0.000000     0.500000
   14    -1.000000    60.000000     0.000000    -0.000000    -1.000000     0.000001     0.000000     0.500000
   15     1.000000   180.000000     0.000000     0.000000     1.000000     0.000000     0.000000     0.500000
   16    -1.000000   180.000000     0.000000     0.000000     1.000000     0.000000     0.000000     0.500000
   17     1.000000    60.000000     0.000000     0.000000     1.000000     0.000000     0.000000     0.500000
   18    -1.000000    60.000000     0.000000     0.000000     1.000000     0.000000     0.000000     0.500000
   19     1.000000   180.000000     0.866026    -0.500000     0.000000     0.000000     0.000000     0.500000
   20    -1.000000   180.000000     0.866026    -0.500000     0.000000    -0.000000     0.000000     0.500000
   21     1.000000   180.000000     0.000000     1.000000     0.000000     0.000001     0.000000     0.500000
   22    -1.000000   180.000000     0.000000     1.000000     0.000000     0.000001     0.000000     0.500000
   23     1.000000   180.000000     0.866025     0.500000     0.000000     0.000000     0.000000     0.500000
   24    -1.000000   180.000000     0.866025     0.500000     0.000000     0.000000     0.000000     0.500000
 
 Subroutine IBZKPT returns following result:
 ===========================================
 
 Found    111 irreducible k-points:
 
 Following reciprocal coordinates:
            Coordinates               Weight
  0.000000  0.000000  0.000000      1.000000
  0.055556  0.000000  0.000000      6.000000
  0.111111  0.000000  0.000000      6.000000
  0.166667  0.000000  0.000000      6.000000
  0.222222  0.000000  0.000000      6.000000
  0.277778  0.000000  0.000000      6.000000
  0.333333  0.000000  0.000000      6.000000
  0.388889  0.000000  0.000000      6.000000
  0.444444  0.000000  0.000000      6.000000
  0.500000  0.000000  0.000000      3.000000
  0.055556  0.055556  0.000000      6.000000
  0.111111  0.055556  0.000000     12.000000
  0.166667  0.055556  0.000000     12.000000
  0.222222  0.055556  0.000000     12.000000
  0.277778  0.055556  0.000000     12.000000
  0.333333  0.055556  0.000000     12.000000
  0.388889  0.055556  0.000000     12.000000
  0.444444  0.055556  0.000000     12.000000
  0.111111  0.111111  0.000000      6.000000
  0.166667  0.111111  0.000000     12.000000
  0.222222  0.111111  0.000000     12.000000
  0.277778  0.111111  0.000000     12.000000
  0.333333  0.111111  0.000000     12.000000
  0.388889  0.111111  0.000000     12.000000
  0.444444  0.111111  0.000000      6.000000
  0.166667  0.166667  0.000000      6.000000
  0.222222  0.166667  0.000000     12.000000
  0.277778  0.166667  0.000000     12.000000
  0.333333  0.166667  0.000000     12.000000
  0.388889  0.166667  0.000000     12.000000
  0.222222  0.222222  0.000000      6.000000
  0.277778  0.222222  0.000000     12.000000
  0.333333  0.222222  0.000000     12.000000
  0.388889  0.222222  0.000000      6.000000
  0.277778  0.277778  0.000000      6.000000
  0.333333  0.277778  0.000000     12.000000
  0.333333  0.333333  0.000000      2.000000
  0.000000  0.000000  0.250000      2.000000
  0.055556  0.000000  0.250000     12.000000
  0.111111  0.000000  0.250000     12.000000
  0.166667  0.000000  0.250000     12.000000
  0.222222  0.000000  0.250000     12.000000
  0.277778  0.000000  0.250000     12.000000
  0.333333  0.000000  0.250000     12.000000
  0.388889  0.000000  0.250000     12.000000
  0.444444  0.000000  0.250000     12.000000
  0.500000  0.000000  0.250000      6.000000
  0.055556  0.055556  0.250000     12.000000
  0.111111  0.055556  0.250000     24.000000
  0.166667  0.055556  0.250000     24.000000
  0.222222  0.055556  0.250000     24.000000
  0.277778  0.055556  0.250000     24.000000
  0.333333  0.055556  0.250000     24.000000
  0.388889  0.055556  0.250000     24.000000
  0.444444  0.055556  0.250000     24.000000
  0.111111  0.111111  0.250000     12.000000
  0.166667  0.111111  0.250000     24.000000
  0.222222  0.111111  0.250000     24.000000
  0.277778  0.111111  0.250000     24.000000
  0.333333  0.111111  0.250000     24.000000
  0.388889  0.111111  0.250000     24.000000
  0.444444  0.111111  0.250000     12.000000
  0.166667  0.166667  0.250000     12.000000
  0.222222  0.166667  0.250000     24.000000
  0.277778  0.166667  0.250000     24.000000
  0.333333  0.166667  0.250000     24.000000
  0.388889  0.166667  0.250000     24.000000
  0.222222  0.222222  0.250000     12.000000
  0.277778  0.222222  0.250000     24.000000
  0.333333  0.222222  0.250000     24.000000
  0.388889  0.222222  0.250000     12.000000
  0.277778  0.277778  0.250000     12.000000
  0.333333  0.277778  0.250000     24.000000
  0.333333  0.333333  0.250000      4.000000
  0.000000  0.000000  0.500000      1.000000
  0.055556  0.000000  0.500000      6.000000
  0.111111  0.000000  0.500000      6.000000
  0.166667  0.000000  0.500000      6.000000
  0.222222  0.000000  0.500000      6.000000
  0.277778  0.000000  0.500000      6.000000
  0.333333  0.000000  0.500000      6.000000
  0.388889  0.000000  0.500000      6.000000
  0.444444  0.000000  0.500000      6.000000
  0.500000  0.000000  0.500000      3.000000
  0.055556  0.055556  0.500000      6.000000
  0.111111  0.055556  0.500000     12.000000
  0.166667  0.055556  0.500000     12.000000
  0.222222  0.055556  0.500000     12.000000
  0.277778  0.055556  0.500000     12.000000
  0.333333  0.055556  0.500000     12.000000
  0.388889  0.055556  0.500000     12.000000
  0.444444  0.055556  0.500000     12.000000
  0.111111  0.111111  0.500000      6.000000
  0.166667  0.111111  0.500000     12.000000
  0.222222  0.111111  0.500000     12.000000
  0.277778  0.111111  0.500000     12.000000
  0.333333  0.111111  0.500000     12.000000
  0.388889  0.111111  0.500000     12.000000
  0.444444  0.111111  0.500000      6.000000
  0.166667  0.166667  0.500000      6.000000
  0.222222  0.166667  0.500000     12.000000
  0.277778  0.166667  0.500000     12.000000
  0.333333  0.166667  0.500000     12.000000
  0.388889  0.166667  0.500000     12.000000
  0.222222  0.222222  0.500000      6.000000
  0.277778  0.222222  0.500000     12.000000
  0.333333  0.222222  0.500000     12.000000
  0.388889  0.222222  0.500000      6.000000
  0.277778  0.277778  0.500000      6.000000
  0.333333  0.277778  0.500000     12.000000
  0.333333  0.333333  0.500000      2.000000
 
 Following cartesian coordinates:
            Coordinates               Weight
  0.000000  0.000000  0.000000      1.000000
  0.022517  0.013000  0.000000      6.000000
  0.045034  0.026000  0.000000      6.000000
  0.067550  0.039000  0.000000      6.000000
  0.090067  0.052000  0.000000      6.000000
  0.112584  0.065000  0.000000      6.000000
  0.135101  0.078001  0.000000      6.000000
  0.157618  0.091001  0.000000      6.000000
  0.180135  0.104001  0.000000      6.000000
  0.202651  0.117001  0.000000      3.000000
  0.022517  0.039000  0.000000      6.000000
  0.045034  0.052000  0.000000     12.000000
  0.067550  0.065000  0.000000     12.000000
  0.090067  0.078001  0.000000     12.000000
  0.112584  0.091001  0.000000     12.000000
  0.135101  0.104001  0.000000     12.000000
  0.157618  0.117001  0.000000     12.000000
  0.180135  0.130001  0.000000     12.000000
  0.045034  0.078001  0.000000      6.000000
  0.067550  0.091001  0.000000     12.000000
  0.090067  0.104001  0.000000     12.000000
  0.112584  0.117001  0.000000     12.000000
  0.135101  0.130001  0.000000     12.000000
  0.157618  0.143001  0.000000     12.000000
  0.180135  0.156001  0.000000      6.000000
  0.067550  0.117001  0.000000      6.000000
  0.090067  0.130001  0.000000     12.000000
  0.112584  0.143001  0.000000     12.000000
  0.135101  0.156001  0.000000     12.000000
  0.157618  0.169001  0.000000     12.000000
  0.090067  0.156001  0.000000      6.000000
  0.112584  0.169001  0.000000     12.000000
  0.135101  0.182001  0.000000     12.000000
  0.157618  0.195001  0.000000      6.000000
  0.112584  0.195001  0.000000      6.000000
  0.135101  0.208002  0.000000     12.000000
  0.135101  0.234002  0.000000      2.000000
  0.000000  0.000000  0.032039      2.000000
  0.022517  0.013000  0.032039     12.000000
  0.045034  0.026000  0.032039     12.000000
  0.067550  0.039000  0.032039     12.000000
  0.090067  0.052000  0.032039     12.000000
  0.112584  0.065000  0.032039     12.000000
  0.135101  0.078001  0.032039     12.000000
  0.157618  0.091001  0.032039     12.000000
  0.180135  0.104001  0.032039     12.000000
  0.202651  0.117001  0.032039      6.000000
  0.022517  0.039000  0.032039     12.000000
  0.045034  0.052000  0.032039     24.000000
  0.067550  0.065000  0.032039     24.000000
  0.090067  0.078001  0.032039     24.000000
  0.112584  0.091001  0.032039     24.000000
  0.135101  0.104001  0.032039     24.000000
  0.157618  0.117001  0.032039     24.000000
  0.180135  0.130001  0.032039     24.000000
  0.045034  0.078001  0.032039     12.000000
  0.067550  0.091001  0.032039     24.000000
  0.090067  0.104001  0.032039     24.000000
  0.112584  0.117001  0.032039     24.000000
  0.135101  0.130001  0.032039     24.000000
  0.157618  0.143001  0.032039     24.000000
  0.180135  0.156001  0.032039     12.000000
  0.067550  0.117001  0.032039     12.000000
  0.090067  0.130001  0.032039     24.000000
  0.112584  0.143001  0.032039     24.000000
  0.135101  0.156001  0.032039     24.000000
  0.157618  0.169001  0.032039     24.000000
  0.090067  0.156001  0.032039     12.000000
  0.112584  0.169001  0.032039     24.000000
  0.135101  0.182001  0.032039     24.000000
  0.157618  0.195001  0.032039     12.000000
  0.112584  0.195001  0.032039     12.000000
  0.135101  0.208002  0.032039     24.000000
  0.135101  0.234002  0.032039      4.000000
  0.000000  0.000000  0.064077      1.000000
  0.022517  0.013000  0.064077      6.000000
  0.045034  0.026000  0.064077      6.000000
  0.067550  0.039000  0.064077      6.000000
  0.090067  0.052000  0.064077      6.000000
  0.112584  0.065000  0.064077      6.000000
  0.135101  0.078001  0.064077      6.000000
  0.157618  0.091001  0.064077      6.000000
  0.180135  0.104001  0.064077      6.000000
  0.202651  0.117001  0.064077      3.000000
  0.022517  0.039000  0.064077      6.000000
  0.045034  0.052000  0.064077     12.000000
  0.067550  0.065000  0.064077     12.000000
  0.090067  0.078001  0.064077     12.000000
  0.112584  0.091001  0.064077     12.000000
  0.135101  0.104001  0.064077     12.000000
  0.157618  0.117001  0.064077     12.000000
  0.180135  0.130001  0.064077     12.000000
  0.045034  0.078001  0.064077      6.000000
  0.067550  0.091001  0.064077     12.000000
  0.090067  0.104001  0.064077     12.000000
  0.112584  0.117001  0.064077     12.000000
  0.135101  0.130001  0.064077     12.000000
  0.157618  0.143001  0.064077     12.000000
  0.180135  0.156001  0.064077      6.000000
  0.067550  0.117001  0.064077      6.000000
  0.090067  0.130001  0.064077     12.000000
  0.112584  0.143001  0.064077     12.000000
  0.135101  0.156001  0.064077     12.000000
  0.157618  0.169001  0.064077     12.000000
  0.090067  0.156001  0.064077      6.000000
  0.112584  0.169001  0.064077     12.000000
  0.135101  0.182001  0.064077     12.000000
  0.157618  0.195001  0.064077      6.000000
  0.112584  0.195001  0.064077      6.000000
  0.135101  0.208002  0.064077     12.000000
  0.135101  0.234002  0.064077      2.000000
 
 TETIRR: Found   1318 inequivalent tetrahedra from     7776


--------------------------------------------------------------------------------------------------------




 Dimension of arrays:
   k-points           NKPTS =    111   k-points in BZ     NKDIM =    111   number of bands    NBANDS=     16
   number of dos      NEDOS =    301   number of ions     NIONS =      4
   non local maximal  LDIM  =      4   non local SUM 2l+1 LMDIM =      8
   total plane-waves  NPLWV =  13824
   max r-space proj   IRMAX =      1   max aug-charges    IRDMAX=   4165
   dimension x,y,z NGX =    16 NGY =   16 NGZ =   54
   dimension x,y,z NGXF=    32 NGYF=   32 NGZF=  108
   support grid    NGXF=    32 NGYF=   32 NGZF=  108
   ions per type =               4
   NGX,Y,Z   is equivalent  to a cutoff of  10.78, 10.78, 11.50 a.u.
   NGXF,Y,Z  is equivalent  to a cutoff of  21.56, 21.56, 23.01 a.u.

 SYSTEM =  unknown system                          
 POSCAR =  C4                                      

 Startparameter for this run:
   NWRITE =      0    write-flag & timer
   PREC   = accura    normal or accurate (medium, high low for compatibility)
   ISTART =      0    job   : 0-new  1-cont  2-samecut
   ICHARG =      0    charge: 1-file 2-atom 10-const
   ISPIN  =      2    spin polarized calculation?
   LNONCOLLINEAR =      F non collinear calculations
   LSORBIT =      F    spin-orbit coupling
   INIWAV =      1    electr: 0-lowe 1-rand  2-diag
   LASPH  =      F    aspherical Exc in radial PAW
   METAGGA=      F    non-selfconsistent MetaGGA calc.

 Electronic Relaxation 1
   ENCUT  =  400.0 eV  29.40 Ry    5.42 a.u.   4.02  4.02 12.72*2*pi/ulx,y,z
   ENINI  =  400.0     initial cutoff
   ENAUG  =  644.9 eV  augmentation charge cutoff
   NELM   =     60;   NELMIN=  2; NELMDL= -5     # of ELM steps 
   EDIFF  = 0.1E-05   stopping-criterion for ELM
   LREAL  =      F    real-space projection
   NLSPLINE    = F    spline interpolate recip. space projectors
   LCOMPAT=      F    compatible to vasp.4.4
   GGA_COMPAT  = T    GGA compatible to vasp.4.4-vasp.4.6
   LMAXPAW     = -100 max onsite density
   LMAXMIX     =    2 max onsite mixed and CHGCAR
   VOSKOWN=      0    Vosko Wilk Nusair interpolation
   ROPT   =    0.00000
 Ionic relaxation
   EDIFFG = 0.1E-03   stopping-criterion for IOM
   NSW    =    100    number of steps for IOM
   NBLOCK =      1;   KBLOCK =    100    inner block; outer block 
   IBRION =      2    ionic relax: 0-MD 1-quasi-New 2-CG
   NFREE  =      1    steps in history (QN), initial steepest desc. (CG)
   ISIF   =      3    stress and relaxation
   IWAVPR =     11    prediction:  0-non 1-charg 2-wave 3-comb
   ISYM   =      2    0-nonsym 1-usesym 2-fastsym
   LCORR  =      T    Harris-Foulkes like correction to forces

   POTIM  = 0.0150    time-step for ionic-motion
   TEIN   =    0.0    initial temperature
   TEBEG  =    0.0;   TEEND  =   0.0 temperature during run
   SMASS  =  -3.00    Nose mass-parameter (am)
   estimated Nose-frequenzy (Omega)   =  0.10E-29 period in steps =****** mass=  -0.139E-27a.u.
   SCALEE = 1.0000    scale energy and forces
   NPACO  =    256;   APACO  = 16.0  distance and # of slots for P.C.
   PSTRESS= 1000.0 pullay stress

  Mass of Ions in am
   POMASS =  12.01
  Ionic Valenz
   ZVAL   =   4.00
  Atomic Wigner-Seitz radii
   RWIGS  =  -1.00
  virtual crystal weights 
   VCA    =   1.00
   NELECT =      16.0000    total number of electrons
   NUPDOWN=      -1.0000    fix difference up-down

 DOS related values:
   EMIN   =  10.00;   EMAX   =-10.00  energy-range for DOS
   EFERMI =   0.00
   ISMEAR =    -5;   SIGMA  =   0.01  broadening in eV -4-tet -1-fermi 0-gaus

 Electronic relaxation 2 (details)
   IALGO  =     38    algorithm
   LDIAG  =      T    sub-space diagonalisation (order eigenvalues)
   LSUBROT=      F    optimize rotation matrix (better conditioning)
   TURBO    =      0    0=normal 1=particle mesh
   IRESTART =      0    0=no restart 2=restart with 2 vectors
   NREBOOT  =      0    no. of reboots
   NMIN     =      0    reboot dimension
   EREF     =   0.00    reference energy to select bands
   IMIX   =      4    mixing-type and parameters
     AMIX     =   0.40;   BMIX     =  1.00
     AMIX_MAG =   1.60;   BMIX_MAG =  1.00
     AMIN     =   0.10
     WC   =   100.;   INIMIX=   1;  MIXPRE=   1;  MAXMIX= -45

 Intra band minimization:
   WEIMIN = 0.0010     energy-eigenvalue tresh-hold
   EBREAK =  0.16E-07  absolut break condition
   DEPER  =   0.30     relativ break condition  

   TIME   =   0.40     timestep for ELM

  volume/ion in A,a.u.               =      10.28        69.40
  Fermi-wavevector in a.u.,A,eV,Ry     =   1.195003  2.258229 19.429568  1.428033
  Thomas-Fermi vector in A             =   2.330980
 
 Write flags
   LWAVE        =      F    write WAVECAR
   LDOWNSAMPLE  =      F    k-point downsampling of WAVECAR
   LCHARG       =      F    write CHGCAR
   LVTOT        =      F    write LOCPOT, total local potential
   LVHAR        =      F    write LOCPOT, Hartree potential only
   LELF         =      F    write electronic localiz. function (ELF)
   LORBIT       =     11    0 simple, 1 ext, 2 COOP (PROOUT), +10 PAW based schemes


 Dipole corrections
   LMONO  =      F    monopole corrections only (constant potential shift)
   LDIPOL =      F    correct potential (dipole corrections)
   IDIPOL =      0    1-x, 2-y, 3-z, 4-all directions 
   EPSILON=  1.0000000 bulk dielectric constant

 Exchange correlation treatment:
   GGA     =    --    GGA type
   LEXCH   =     8    internal setting for exchange type
   VOSKOWN=      0    Vosko Wilk Nusair interpolation
   LHFCALC =     F    Hartree Fock is set to
   LHFONE  =     F    Hartree Fock one center treatment
   AEXX    =    0.0000 exact exchange contribution

 Linear response parameters
   LEPSILON=     F    determine dielectric tensor
   LRPA    =     F    only Hartree local field effects (RPA)
   LNABLA  =     F    use nabla operator in PAW spheres
   LVEL    =     F    velocity operator in full k-point grid
   LINTERFAST=   F  fast interpolation
   KINTER  =     0    interpolate to denser k-point grid
   CSHIFT  =0.1000    complex shift for real part using Kramers Kronig
   OMEGAMAX=  -1.0    maximum frequency
   DEG_THRESHOLD= 0.2000000E-02 threshold for treating states as degnerate
   RTIME   =   -0.100 relaxation time in fs
  (WPLASMAI=    0.000 imaginary part of plasma frequency in eV, 0.658/RTIME)
   DFIELD  = 0.0000000 0.0000000 0.0000000 field for delta impulse in time
 
 Orbital magnetization related:
   ORBITALMAG=     F  switch on orbital magnetization
   LCHIMAG   =     F  perturbation theory with respect to B field
   DQ        =  0.001000  dq finite difference perturbation B field
   LLRAUG    =     F  two centre corrections for induced B field



--------------------------------------------------------------------------------------------------------


 conjugate gradient relaxation of ions
 charge density and potential will be updated during run
 spin polarized calculation
 Variant of blocked Davidson
 Davidson routine will perform the subspace rotation
 perform sub-space diagonalisation
    after iterative eigenvector-optimisation
 modified Broyden-mixing scheme, WC =      100.0
 initial mixing is a Kerker type mixing with AMIX =  0.4000 and BMIX =      1.0000
 Hartree-type preconditioning will be used
 using additional bands             8
 reciprocal scheme for non local part
 calculate Harris-corrections to forces 
   (improved forces if not selfconsistent)
 use gradient corrections 
 use of overlap-Matrix (Vanderbilt PP)
 Fermi weights with tetrahedron method with Bloechl corrections


--------------------------------------------------------------------------------------------------------


  energy-cutoff  :      400.00
  volume of cell :       41.14
      direct lattice vectors                 reciprocal lattice vectors
     2.467291000  0.000000000  0.000000000     0.405302820  0.234001753 -0.000000000
    -1.233646000  2.136737000  0.000000000     0.000000000  0.468003315  0.000000000
     0.000000000  0.000000000  7.803073000     0.000000000 -0.000000000  0.128154639

  length of vectors
     2.467291000  2.467291523  7.803073000     0.468003415  0.468003315  0.128154639


 
 k-points in units of 2pi/SCALE and weight: kpt_density=6000                        
   0.00000000  0.00000000  0.00000000       0.001
   0.02251682  0.01300010  0.00000000       0.005
   0.04503365  0.02600019  0.00000000       0.005
   0.06755047  0.03900029  0.00000000       0.005
   0.09006729  0.05200039  0.00000000       0.005
   0.11258412  0.06500049  0.00000000       0.005
   0.13510094  0.07800058  0.00000000       0.005
   0.15761776  0.09100068  0.00000000       0.005
   0.18013459  0.10400078  0.00000000       0.005
   0.20265141  0.11700088  0.00000000       0.002
   0.02251682  0.03900028  0.00000000       0.005
   0.04503365  0.05200038  0.00000000       0.009
   0.06755047  0.06500048  0.00000000       0.009
   0.09006729  0.07800057  0.00000000       0.009
   0.11258412  0.09100067  0.00000000       0.009
   0.13510094  0.10400077  0.00000000       0.009
   0.15761776  0.11700087  0.00000000       0.009
   0.18013459  0.13000096  0.00000000       0.009
   0.04503365  0.07800056  0.00000000       0.005
   0.06755047  0.09100066  0.00000000       0.009
   0.09006729  0.10400076  0.00000000       0.009
   0.11258412  0.11700086  0.00000000       0.009
   0.13510094  0.13000095  0.00000000       0.009
   0.15761776  0.14300105  0.00000000       0.009
   0.18013459  0.15600115  0.00000000       0.005
   0.06755047  0.11700084  0.00000000       0.005
   0.09006729  0.13000094  0.00000000       0.009
   0.11258412  0.14300104  0.00000000       0.009
   0.13510094  0.15600114  0.00000000       0.009
   0.15761776  0.16900123  0.00000000       0.009
   0.09006729  0.15600113  0.00000000       0.005
   0.11258412  0.16900122  0.00000000       0.009
   0.13510094  0.18200132  0.00000000       0.009
   0.15761776  0.19500142  0.00000000       0.005
   0.11258412  0.19500141  0.00000000       0.005
   0.13510094  0.20800151  0.00000000       0.009
   0.13510094  0.23400169  0.00000000       0.002
   0.00000000  0.00000000  0.03203866       0.002
   0.02251682  0.01300010  0.03203866       0.009
   0.04503365  0.02600019  0.03203866       0.009
   0.06755047  0.03900029  0.03203866       0.009
   0.09006729  0.05200039  0.03203866       0.009
   0.11258412  0.06500049  0.03203866       0.009
   0.13510094  0.07800058  0.03203866       0.009
   0.15761776  0.09100068  0.03203866       0.009
   0.18013459  0.10400078  0.03203866       0.009
   0.20265141  0.11700088  0.03203866       0.005
   0.02251682  0.03900028  0.03203866       0.009
   0.04503365  0.05200038  0.03203866       0.019
   0.06755047  0.06500048  0.03203866       0.019
   0.09006729  0.07800057  0.03203866       0.019
   0.11258412  0.09100067  0.03203866       0.019
   0.13510094  0.10400077  0.03203866       0.019
   0.15761776  0.11700087  0.03203866       0.019
   0.18013459  0.13000096  0.03203866       0.019
   0.04503365  0.07800056  0.03203866       0.009
   0.06755047  0.09100066  0.03203866       0.019
   0.09006729  0.10400076  0.03203866       0.019
   0.11258412  0.11700086  0.03203866       0.019
   0.13510094  0.13000095  0.03203866       0.019
   0.15761776  0.14300105  0.03203866       0.019
   0.18013459  0.15600115  0.03203866       0.009
   0.06755047  0.11700084  0.03203866       0.009
   0.09006729  0.13000094  0.03203866       0.019
   0.11258412  0.14300104  0.03203866       0.019
   0.13510094  0.15600114  0.03203866       0.019
   0.15761776  0.16900123  0.03203866       0.019
   0.09006729  0.15600113  0.03203866       0.009
   0.11258412  0.16900122  0.03203866       0.019
   0.13510094  0.18200132  0.03203866       0.019
   0.15761776  0.19500142  0.03203866       0.009
   0.11258412  0.19500141  0.03203866       0.009
   0.13510094  0.20800151  0.03203866       0.019
   0.13510094  0.23400169  0.03203866       0.003
   0.00000000  0.00000000  0.06407732       0.001
   0.02251682  0.01300010  0.06407732       0.005
   0.04503365  0.02600019  0.06407732       0.005
   0.06755047  0.03900029  0.06407732       0.005
   0.09006729  0.05200039  0.06407732       0.005
   0.11258412  0.06500049  0.06407732       0.005
   0.13510094  0.07800058  0.06407732       0.005
   0.15761776  0.09100068  0.06407732       0.005
   0.18013459  0.10400078  0.06407732       0.005
   0.20265141  0.11700088  0.06407732       0.002
   0.02251682  0.03900028  0.06407732       0.005
   0.04503365  0.05200038  0.06407732       0.009
   0.06755047  0.06500048  0.06407732       0.009
   0.09006729  0.07800057  0.06407732       0.009
   0.11258412  0.09100067  0.06407732       0.009
   0.13510094  0.10400077  0.06407732       0.009
   0.15761776  0.11700087  0.06407732       0.009
   0.18013459  0.13000096  0.06407732       0.009
   0.04503365  0.07800056  0.06407732       0.005
   0.06755047  0.09100066  0.06407732       0.009
   0.09006729  0.10400076  0.06407732       0.009
   0.11258412  0.11700086  0.06407732       0.009
   0.13510094  0.13000095  0.06407732       0.009
   0.15761776  0.14300105  0.06407732       0.009
   0.18013459  0.15600115  0.06407732       0.005
   0.06755047  0.11700084  0.06407732       0.005
   0.09006729  0.13000094  0.06407732       0.009
   0.11258412  0.14300104  0.06407732       0.009
   0.13510094  0.15600114  0.06407732       0.009
   0.15761776  0.16900123  0.06407732       0.009
   0.09006729  0.15600113  0.06407732       0.005
   0.11258412  0.16900122  0.06407732       0.009
   0.13510094  0.18200132  0.06407732       0.009
   0.15761776  0.19500142  0.06407732       0.005
   0.11258412  0.19500141  0.06407732       0.005
   0.13510094  0.20800151  0.06407732       0.009
   0.13510094  0.23400169  0.06407732       0.002
 
 k-points in reciprocal lattice and weights: kpt_density=6000                        
   0.00000000  0.00000000  0.00000000       0.001
   0.05555556  0.00000000  0.00000000       0.005
   0.11111111  0.00000000  0.00000000       0.005
   0.16666667  0.00000000  0.00000000       0.005
   0.22222222  0.00000000  0.00000000       0.005
   0.27777778  0.00000000  0.00000000       0.005
   0.33333333  0.00000000  0.00000000       0.005
   0.38888889  0.00000000  0.00000000       0.005
   0.44444444  0.00000000  0.00000000       0.005
   0.50000000  0.00000000  0.00000000       0.002
   0.05555556  0.05555556  0.00000000       0.005
   0.11111111  0.05555556  0.00000000       0.009
   0.16666667  0.05555556  0.00000000       0.009
   0.22222222  0.05555556  0.00000000       0.009
   0.27777778  0.05555556  0.00000000       0.009
   0.33333333  0.05555556  0.00000000       0.009
   0.38888889  0.05555556  0.00000000       0.009
   0.44444444  0.05555556  0.00000000       0.009
   0.11111111  0.11111111  0.00000000       0.005
   0.16666667  0.11111111  0.00000000       0.009
   0.22222222  0.11111111  0.00000000       0.009
   0.27777778  0.11111111  0.00000000       0.009
   0.33333333  0.11111111  0.00000000       0.009
   0.38888889  0.11111111  0.00000000       0.009
   0.44444444  0.11111111  0.00000000       0.005
   0.16666667  0.16666667  0.00000000       0.005
   0.22222222  0.16666667  0.00000000       0.009
   0.27777778  0.16666667  0.00000000       0.009
   0.33333333  0.16666667  0.00000000       0.009
   0.38888889  0.16666667  0.00000000       0.009
   0.22222222  0.22222222  0.00000000       0.005
   0.27777778  0.22222222  0.00000000       0.009
   0.33333333  0.22222222  0.00000000       0.009
   0.38888889  0.22222222  0.00000000       0.005
   0.27777778  0.27777778  0.00000000       0.005
   0.33333333  0.27777778  0.00000000       0.009
   0.33333333  0.33333333  0.00000000       0.002
   0.00000000  0.00000000  0.25000000       0.002
   0.05555556  0.00000000  0.25000000       0.009
   0.11111111  0.00000000  0.25000000       0.009
   0.16666667  0.00000000  0.25000000       0.009
   0.22222222  0.00000000  0.25000000       0.009
   0.27777778  0.00000000  0.25000000       0.009
   0.33333333  0.00000000  0.25000000       0.009
   0.38888889  0.00000000  0.25000000       0.009
   0.44444444  0.00000000  0.25000000       0.009
   0.50000000  0.00000000  0.25000000       0.005
   0.05555556  0.05555556  0.25000000       0.009
   0.11111111  0.05555556  0.25000000       0.019
   0.16666667  0.05555556  0.25000000       0.019
   0.22222222  0.05555556  0.25000000       0.019
   0.27777778  0.05555556  0.25000000       0.019
   0.33333333  0.05555556  0.25000000       0.019
   0.38888889  0.05555556  0.25000000       0.019
   0.44444444  0.05555556  0.25000000       0.019
   0.11111111  0.11111111  0.25000000       0.009
   0.16666667  0.11111111  0.25000000       0.019
   0.22222222  0.11111111  0.25000000       0.019
   0.27777778  0.11111111  0.25000000       0.019
   0.33333333  0.11111111  0.25000000       0.019
   0.38888889  0.11111111  0.25000000       0.019
   0.44444444  0.11111111  0.25000000       0.009
   0.16666667  0.16666667  0.25000000       0.009
   0.22222222  0.16666667  0.25000000       0.019
   0.27777778  0.16666667  0.25000000       0.019
   0.33333333  0.16666667  0.25000000       0.019
   0.38888889  0.16666667  0.25000000       0.019
   0.22222222  0.22222222  0.25000000       0.009
   0.27777778  0.22222222  0.25000000       0.019
   0.33333333  0.22222222  0.25000000       0.019
   0.38888889  0.22222222  0.25000000       0.009
   0.27777778  0.27777778  0.25000000       0.009
   0.33333333  0.27777778  0.25000000       0.019
   0.33333333  0.33333333  0.25000000       0.003
   0.00000000  0.00000000  0.50000000       0.001
   0.05555556  0.00000000  0.50000000       0.005
   0.11111111  0.00000000  0.50000000       0.005
   0.16666667  0.00000000  0.50000000       0.005
   0.22222222  0.00000000  0.50000000       0.005
   0.27777778  0.00000000  0.50000000       0.005
   0.33333333  0.00000000  0.50000000       0.005
   0.38888889  0.00000000  0.50000000       0.005
   0.44444444  0.00000000  0.50000000       0.005
   0.50000000  0.00000000  0.50000000       0.002
   0.05555556  0.05555556  0.50000000       0.005
   0.11111111  0.05555556  0.50000000       0.009
   0.16666667  0.05555556  0.50000000       0.009
   0.22222222  0.05555556  0.50000000       0.009
   0.27777778  0.05555556  0.50000000       0.009
   0.33333333  0.05555556  0.50000000       0.009
   0.38888889  0.05555556  0.50000000       0.009
   0.44444444  0.05555556  0.50000000       0.009
   0.11111111  0.11111111  0.50000000       0.005
   0.16666667  0.11111111  0.50000000       0.009
   0.22222222  0.11111111  0.50000000       0.009
   0.27777778  0.11111111  0.50000000       0.009
   0.33333333  0.11111111  0.50000000       0.009
   0.38888889  0.11111111  0.50000000       0.009
   0.44444444  0.11111111  0.50000000       0.005
   0.16666667  0.16666667  0.50000000       0.005
   0.22222222  0.16666667  0.50000000       0.009
   0.27777778  0.16666667  0.50000000       0.009
   0.33333333  0.16666667  0.50000000       0.009
   0.38888889  0.16666667  0.50000000       0.009
   0.22222222  0.22222222  0.50000000       0.005
   0.27777778  0.22222222  0.50000000       0.009
   0.33333333  0.22222222  0.50000000       0.009
   0.38888889  0.22222222  0.50000000       0.005
   0.27777778  0.27777778  0.50000000       0.005
   0.33333333  0.27777778  0.50000000       0.009
   0.33333333  0.33333333  0.50000000       0.002
 
 position of ions in fractional coordinates (direct lattice) 
   0.00000000  0.00000000  0.25000000
   0.00000000  0.00000000  0.75000000
   0.33333300  0.66666700  0.25000000
   0.66666700  0.33333300  0.75000000
 
 position of ions in cartesian coordinates  (Angst):
   0.00000000  0.00000000  1.95076825
   0.00000000  0.00000000  5.85230475
  -0.00000157  1.42449205  1.95076825
   1.23364657  0.71224495  5.85230475
 


--------------------------------------------------------------------------------------------------------


 k-point  1 :   0.0000 0.0000 0.0000  plane waves:     739
 k-point  2 :   0.0556 0.0000 0.0000  plane waves:     733
 k-point  3 :   0.1111 0.0000 0.0000  plane waves:     729
 k-point  4 :   0.1667 0.0000 0.0000  plane waves:     727
 k-point  5 :   0.2222 0.0000 0.0000  plane waves:     747
 k-point  6 :   0.2778 0.0000 0.0000  plane waves:     745
 k-point  7 :   0.3333 0.0000 0.0000  plane waves:     749
 k-point  8 :   0.3889 0.0000 0.0000  plane waves:     737
 k-point  9 :   0.4444 0.0000 0.0000  plane waves:     739
 k-point 10 :   0.5000 0.0000 0.0000  plane waves:     734
 k-point 11 :   0.0556 0.0556 0.0000  plane waves:     720
 k-point 12 :   0.1111 0.0556 0.0000  plane waves:     729
 k-point 13 :   0.1667 0.0556 0.0000  plane waves:     739
 k-point 14 :   0.2222 0.0556 0.0000  plane waves:     746
 k-point 15 :   0.2778 0.0556 0.0000  plane waves:     754
 k-point 16 :   0.3333 0.0556 0.0000  plane waves:     751
 k-point 17 :   0.3889 0.0556 0.0000  plane waves:     751
 k-point 18 :   0.4444 0.0556 0.0000  plane waves:     743
 k-point 19 :   0.1111 0.1111 0.0000  plane waves:     738
 k-point 20 :   0.1667 0.1111 0.0000  plane waves:     744
 k-point 21 :   0.2222 0.1111 0.0000  plane waves:     748
 k-point 22 :   0.2778 0.1111 0.0000  plane waves:     751
 k-point 23 :   0.3333 0.1111 0.0000  plane waves:     757
 k-point 24 :   0.3889 0.1111 0.0000  plane waves:     753
 k-point 25 :   0.4444 0.1111 0.0000  plane waves:     752
 k-point 26 :   0.1667 0.1667 0.0000  plane waves:     740
 k-point 27 :   0.2222 0.1667 0.0000  plane waves:     756
 k-point 28 :   0.2778 0.1667 0.0000  plane waves:     757
 k-point 29 :   0.3333 0.1667 0.0000  plane waves:     759
 k-point 30 :   0.3889 0.1667 0.0000  plane waves:     755
 k-point 31 :   0.2222 0.2222 0.0000  plane waves:     756
 k-point 32 :   0.2778 0.2222 0.0000  plane waves:     758
 k-point 33 :   0.3333 0.2222 0.0000  plane waves:     753
 k-point 34 :   0.3889 0.2222 0.0000  plane waves:     752
 k-point 35 :   0.2778 0.2778 0.0000  plane waves:     756
 k-point 36 :   0.3333 0.2778 0.0000  plane waves:     750
 k-point 37 :   0.3333 0.3333 0.0000  plane waves:     750
 k-point 38 :   0.0000 0.0000 0.2500  plane waves:     727
 k-point 39 :   0.0556 0.0000 0.2500  plane waves:     719
 k-point 40 :   0.1111 0.0000 0.2500  plane waves:     722
 k-point 41 :   0.1667 0.0000 0.2500  plane waves:     732
 k-point 42 :   0.2222 0.0000 0.2500  plane waves:     741
 k-point 43 :   0.2778 0.0000 0.2500  plane waves:     748
 k-point 44 :   0.3333 0.0000 0.2500  plane waves:     748
 k-point 45 :   0.3889 0.0000 0.2500  plane waves:     752
 k-point 46 :   0.4444 0.0000 0.2500  plane waves:     745
 k-point 47 :   0.5000 0.0000 0.2500  plane waves:     744
 k-point 48 :   0.0556 0.0556 0.2500  plane waves:     720
 k-point 49 :   0.1111 0.0556 0.2500  plane waves:     728
 k-point 50 :   0.1667 0.0556 0.2500  plane waves:     736
 k-point 51 :   0.2222 0.0556 0.2500  plane waves:     743
 k-point 52 :   0.2778 0.0556 0.2500  plane waves:     749
 k-point 53 :   0.3333 0.0556 0.2500  plane waves:     749
 k-point 54 :   0.3889 0.0556 0.2500  plane waves:     754
 k-point 55 :   0.4444 0.0556 0.2500  plane waves:     755
 k-point 56 :   0.1111 0.1111 0.2500  plane waves:     740
 k-point 57 :   0.1667 0.1111 0.2500  plane waves:     745
 k-point 58 :   0.2222 0.1111 0.2500  plane waves:     750
 k-point 59 :   0.2778 0.1111 0.2500  plane waves:     753
 k-point 60 :   0.3333 0.1111 0.2500  plane waves:     754
 k-point 61 :   0.3889 0.1111 0.2500  plane waves:     754
 k-point 62 :   0.4444 0.1111 0.2500  plane waves:     753
 k-point 63 :   0.1667 0.1667 0.2500  plane waves:     753
 k-point 64 :   0.2222 0.1667 0.2500  plane waves:     752
 k-point 65 :   0.2778 0.1667 0.2500  plane waves:     755
 k-point 66 :   0.3333 0.1667 0.2500  plane waves:     755
 k-point 67 :   0.3889 0.1667 0.2500  plane waves:     753
 k-point 68 :   0.2222 0.2222 0.2500  plane waves:     748
 k-point 69 :   0.2778 0.2222 0.2500  plane waves:     754
 k-point 70 :   0.3333 0.2222 0.2500  plane waves:     755
 k-point 71 :   0.3889 0.2222 0.2500  plane waves:     750
 k-point 72 :   0.2778 0.2778 0.2500  plane waves:     756
 k-point 73 :   0.3333 0.2778 0.2500  plane waves:     749
 k-point 74 :   0.3333 0.3333 0.2500  plane waves:     744
 k-point 75 :   0.0000 0.0000 0.5000  plane waves:     698
 k-point 76 :   0.0556 0.0000 0.5000  plane waves:     710
 k-point 77 :   0.1111 0.0000 0.5000  plane waves:     722
 k-point 78 :   0.1667 0.0000 0.5000  plane waves:     732
 k-point 79 :   0.2222 0.0000 0.5000  plane waves:     738
 k-point 80 :   0.2778 0.0000 0.5000  plane waves:     736
 k-point 81 :   0.3333 0.0000 0.5000  plane waves:     742
 k-point 82 :   0.3889 0.0000 0.5000  plane waves:     750
 k-point 83 :   0.4444 0.0000 0.5000  plane waves:     750
 k-point 84 :   0.5000 0.0000 0.5000  plane waves:     748
 k-point 85 :   0.0556 0.0556 0.5000  plane waves:     716
 k-point 86 :   0.1111 0.0556 0.5000  plane waves:     730
 k-point 87 :   0.1667 0.0556 0.5000  plane waves:     734
 k-point 88 :   0.2222 0.0556 0.5000  plane waves:     740
 k-point 89 :   0.2778 0.0556 0.5000  plane waves:     744
 k-point 90 :   0.3333 0.0556 0.5000  plane waves:     754
 k-point 91 :   0.3889 0.0556 0.5000  plane waves:     756
 k-point 92 :   0.4444 0.0556 0.5000  plane waves:     760
 k-point 93 :   0.1111 0.1111 0.5000  plane waves:     730
 k-point 94 :   0.1667 0.1111 0.5000  plane waves:     744
 k-point 95 :   0.2222 0.1111 0.5000  plane waves:     750
 k-point 96 :   0.2778 0.1111 0.5000  plane waves:     756
 k-point 97 :   0.3333 0.1111 0.5000  plane waves:     756
 k-point 98 :   0.3889 0.1111 0.5000  plane waves:     758
 k-point 99 :   0.4444 0.1111 0.5000  plane waves:     754
 k-point ** :   0.1667 0.1667 0.5000  plane waves:     752
 k-point ** :   0.2222 0.1667 0.5000  plane waves:     754
 k-point ** :   0.2778 0.1667 0.5000  plane waves:     752
 k-point ** :   0.3333 0.1667 0.5000  plane waves:     760
 k-point ** :   0.3889 0.1667 0.5000  plane waves:     758
 k-point ** :   0.2222 0.2222 0.5000  plane waves:     754
 k-point ** :   0.2778 0.2222 0.5000  plane waves:     750
 k-point ** :   0.3333 0.2222 0.5000  plane waves:     758
 k-point ** :   0.3889 0.2222 0.5000  plane waves:     750
 k-point ** :   0.2778 0.2778 0.5000  plane waves:     748
 k-point ** :   0.3333 0.2778 0.5000  plane waves:     748
 k-point ** :   0.3333 0.3333 0.5000  plane waves:     744

 maximum and minimum number of plane-waves per node :       200      162

 maximum number of plane-waves:       760
 maximum index in each direction: 
   IXMAX=    4   IYMAX=    4   IZMAX=   12
   IXMIN=   -4   IYMIN=   -4   IZMIN=  -13


 parallel 3D FFT for wavefunctions:
    minimum data exchange during FFTs selected (reduces bandwidth)
 parallel 3D FFT for charge:
    minimum data exchange during FFTs selected (reduces bandwidth)


 total amount of memory used by VASP MPI-rank0    35339. kBytes
=======================================================================

   base      :      30000. kBytes
   nonl-proj :       1376. kBytes
   fftplans  :        333. kBytes
   grid      :        783. kBytes
   one-center:          6. kBytes
   wavefun   :       2841. kBytes
 
     INWAV:  cpu time    0.0000: real time    0.0000
 Broyden mixing: mesh for mixing (old mesh)
   NGX =  9   NGY =  9   NGZ = 25
  (NGX  = 32   NGY  = 32   NGZ  =108)
  gives a total of   2025 points

 charge density for first step will be calculated from the start-wavefunctions


--------------------------------------------------------------------------------------------------------


 Maximum index for augmentation-charges           281 (set IRDMAX)


--------------------------------------------------------------------------------------------------------


 initial charge from wavefunction
 First call to EWALD:  gamma=   0.513
 Maximum number of real-space cells 4x 4x 1
 Maximum number of reciprocal cells 2x 2x 6

    FEWALD:  cpu time    0.0004: real time    0.0004


--------------------------------------- Iteration      1(   1)  ---------------------------------------


    POTLOK:  cpu time    0.0144: real time    0.0182
    SETDIJ:  cpu time    0.0033: real time    0.0033
     EDDAV:  cpu time    1.0937: real time    1.0967
 BZINTS: Fermi energy:-23.008278; 16.000000 electrons
         Band energy:-602.553935;  BLOECHL correction: -0.139307
       DOS:  cpu time    0.0983: real time    0.0983
    --------------------------------------------
      LOOP:  cpu time    1.2097: real time    1.2165

 eigenvalue-minimisations  : 10632
 total energy-change (2. order) :-0.3098092E+03  (-0.1206711E+04)
 number of electron      16.0000000 magnetization       0.0000000
 augmentation part       -0.0628274 magnetization      -0.0025461

 Free energy of the ion-electron system (eV)
  ---------------------------------------------------
  alpha Z        PSCENC =        31.69091381
  Ewald energy   TEWEN  =      -360.71913134
  -Hartree energ DENC   =       -11.24567701
  -exchange      EXHF   =         0.00000000
  -V(xc)+E(xc)   XCENC  =        45.98753402
  PAW double counting   =        11.88648395      -13.36428932
  entropy T*S    EENTRO =         0.00000000
  eigenvalues    EBANDS =      -602.55393538
  atomic energy  EATOM  =       588.50889549
  Solvation  Ediel_sol  =         0.00000000
  ---------------------------------------------------
  free energy    TOTEN  =      -309.80920578 eV

  energy without entropy =     -309.80920578  energy(sigma->0) =     -309.80920578


--------------------------------------------------------------------------------------------------------




--------------------------------------- Iteration      1(   2)  ---------------------------------------


     EDDAV:  cpu time    1.0722: real time    1.0747
 BZINTS: Fermi energy:-26.931459; 16.000000 electrons
         Band energy:-666.160066;  BLOECHL correction: -0.001230
       DOS:  cpu time    0.0927: real time    0.0927
    --------------------------------------------
      LOOP:  cpu time    1.1649: real time    1.1674

 eigenvalue-minimisations  : 10248
 total energy-change (2. order) :-0.6360613E+02  (-0.5799443E+02)
 number of electron      16.0000000 magnetization       0.0000000
 augmentation part       -0.0628274 magnetization      -0.0025461

 Free energy of the ion-electron system (eV)
  ---------------------------------------------------
  alpha Z        PSCENC =        31.69091381
  Ewald energy   TEWEN  =      -360.71913134
  -Hartree energ DENC   =       -11.24567701
  -exchange      EXHF   =         0.00000000
  -V(xc)+E(xc)   XCENC  =        45.98753402
  PAW double counting   =        11.88648395      -13.36428932
  entropy T*S    EENTRO =         0.00000000
  eigenvalues    EBANDS =      -666.16006607
  atomic energy  EATOM  =       588.50889549
  Solvation  Ediel_sol  =         0.00000000
  ---------------------------------------------------
  free energy    TOTEN  =      -373.41533648 eV

  energy without entropy =     -373.41533648  energy(sigma->0) =     -373.41533648


--------------------------------------------------------------------------------------------------------




--------------------------------------- Iteration      1(   3)  ---------------------------------------


     EDDAV:  cpu time    0.9463: real time    0.9487
 BZINTS: Fermi energy:-27.040849; 16.000000 electrons
         Band energy:-668.998158;  BLOECHL correction: -0.000009
       DOS:  cpu time    0.0628: real time    0.0628
    --------------------------------------------
      LOOP:  cpu time    1.0091: real time    1.0115

 eigenvalue-minimisations  :  9000
 total energy-change (2. order) :-0.2838092E+01  (-0.2813102E+01)
 number of electron      16.0000000 magnetization       0.0000000
 augmentation part       -0.0628274 magnetization      -0.0025461

 Free energy of the ion-electron system (eV)
  ---------------------------------------------------
  alpha Z        PSCENC =        31.69091381
  Ewald energy   TEWEN  =      -360.71913134
  -Hartree energ DENC   =       -11.24567701
  -exchange      EXHF   =         0.00000000
  -V(xc)+E(xc)   XCENC  =        45.98753402
  PAW double counting   =        11.88648395      -13.36428932
  entropy T*S    EENTRO =         0.00000000
  eigenvalues    EBANDS =      -668.99815800
  atomic energy  EATOM  =       588.50889549
  Solvation  Ediel_sol  =         0.00000000
  ---------------------------------------------------
  free energy    TOTEN  =      -376.25342841 eV

  energy without entropy =     -376.25342841  energy(sigma->0) =     -376.25342841


--------------------------------------------------------------------------------------------------------




--------------------------------------- Iteration      1(   4)  ---------------------------------------


     EDDAV:  cpu time    1.0495: real time    1.0508
 BZINTS: Fermi energy:-27.046837; 16.000000 electrons
         Band energy:-669.105238;  BLOECHL correction: -0.000000
       DOS:  cpu time    0.0565: real time    0.0565
    --------------------------------------------
      LOOP:  cpu time    1.1060: real time    1.1073

 eigenvalue-minimisations  : 10296
 total energy-change (2. order) :-0.1070800E+00  (-0.1070549E+00)
 number of electron      16.0000000 magnetization       0.0000000
 augmentation part       -0.0628274 magnetization      -0.0025461

 Free energy of the ion-electron system (eV)
  ---------------------------------------------------
  alpha Z        PSCENC =        31.69091381
  Ewald energy   TEWEN  =      -360.71913134
  -Hartree energ DENC   =       -11.24567701
  -exchange      EXHF   =         0.00000000
  -V(xc)+E(xc)   XCENC  =        45.98753402
  PAW double counting   =        11.88648395      -13.36428932
  entropy T*S    EENTRO =         0.00000000
  eigenvalues    EBANDS =      -669.10523800
  atomic energy  EATOM  =       588.50889549
  Solvation  Ediel_sol  =         0.00000000
  ---------------------------------------------------
  free energy    TOTEN  =      -376.36050841 eV

  energy without entropy =     -376.36050841  energy(sigma->0) =     -376.36050841


--------------------------------------------------------------------------------------------------------




--------------------------------------- Iteration      1(   5)  ---------------------------------------


     EDDAV:  cpu time    0.9542: real time    0.9551
 BZINTS: Fermi energy:-27.047130; 16.000000 electrons
         Band energy:-669.106773;  BLOECHL correction: -0.000000
       DOS:  cpu time    0.0366: real time    0.0366
    CHARGE:  cpu time    0.0259: real time    0.0259
    MIXING:  cpu time    0.0004: real time    0.0004
    --------------------------------------------
      LOOP:  cpu time    1.0170: real time    1.0180

 eigenvalue-minimisations  :  9184
 total energy-change (2. order) :-0.1534850E-02  (-0.1534999E-02)
 number of electron      15.9999995 magnetization       0.0000000
 augmentation part        0.7152080 magnetization       0.0004618

 Broyden mixing:
  rms(total) = 0.49633E+01    rms(broyden)= 0.49602E+01
  rms(prec ) = 0.94050E+01
  weight for this iteration     100.00

 Free energy of the ion-electron system (eV)
  ---------------------------------------------------
  alpha Z        PSCENC =        31.69091381
  Ewald energy   TEWEN  =      -360.71913134
  -Hartree energ DENC   =       -11.24567701
  -exchange      EXHF   =         0.00000000
  -V(xc)+E(xc)   XCENC  =        45.98753402
  PAW double counting   =        11.88648395      -13.36428932
  entropy T*S    EENTRO =         0.00000000
  eigenvalues    EBANDS =      -669.10677285
  atomic energy  EATOM  =       588.50889549
  Solvation  Ediel_sol  =         0.00000000
  ---------------------------------------------------
  free energy    TOTEN  =      -376.36204326 eV

  energy without entropy =     -376.36204326  energy(sigma->0) =     -376.36204326


--------------------------------------------------------------------------------------------------------




--------------------------------------- Iteration      1(   6)  ---------------------------------------


    POTLOK:  cpu time    0.0096: real time    0.0103
    SETDIJ:  cpu time    0.0030: real time    0.0030
     EDDAV:  cpu time    0.7783: real time    0.7784
 BZINTS: Fermi energy:-14.405030; 16.000000 electrons
         Band energy:-448.007044;  BLOECHL correction:  0.000000
       DOS:  cpu time    0.0194: real time    0.0194
    CHARGE:  cpu time    0.0257: real time    0.0257
    MIXING:  cpu time    0.0003: real time    0.0003
    --------------------------------------------
      LOOP:  cpu time    0.8363: real time    0.8371

 eigenvalue-minimisations  :  7104
 total energy-change (2. order) : 0.1984652E+03  (-0.4864896E+01)
 number of electron      15.9999997 magnetization      -0.0000000
 augmentation part        0.6022379 magnetization       0.0000355

 Broyden mixing:
  rms(total) = 0.29582E+01    rms(broyden)= 0.29580E+01
  rms(prec ) = 0.60071E+01
  weight for this iteration     100.00

 eigenvalues of (default mixing * dielectric matrix)
  average eigenvalue GAMMA=   2.1822
  2.1822

 Free energy of the ion-electron system (eV)
  ---------------------------------------------------
  alpha Z        PSCENC =        31.69091381
  Ewald energy   TEWEN  =      -360.71913134
  -Hartree energ DENC   =       -32.39763044
  -exchange      EXHF   =         0.00000000
  -V(xc)+E(xc)   XCENC  =        47.60153032
  PAW double counting   =       106.18572062     -110.76014341
  entropy T*S    EENTRO =         0.00000000
  eigenvalues    EBANDS =      -448.00704389
  atomic energy  EATOM  =       588.50889549
  Solvation  Ediel_sol  =         0.00000000
  ---------------------------------------------------
  free energy    TOTEN  =      -177.89688884 eV

  energy without entropy =     -177.89688884  energy(sigma->0) =     -177.89688884


--------------------------------------------------------------------------------------------------------




--------------------------------------- Iteration      1(   7)  ---------------------------------------


    POTLOK:  cpu time    0.0091: real time    0.0103
    SETDIJ:  cpu time    0.0032: real time    0.0032
     EDDAV:  cpu time    0.9640: real time    0.9640
 BZINTS: Fermi energy:  3.185323; 16.000000 electrons
         Band energy: -96.424178;  BLOECHL correction:  0.000000
       DOS:  cpu time    0.0200: real time    0.0200
    CHARGE:  cpu time    0.0258: real time    0.0258
    MIXING:  cpu time    0.0003: real time    0.0003
    --------------------------------------------
      LOOP:  cpu time    1.0223: real time    1.0236

 eigenvalue-minimisations  :  9152
 total energy-change (2. order) : 0.1398390E+03  (-0.2098835E+02)
 number of electron      16.0000000 magnetization      -0.0000000
 augmentation part        0.3930663 magnetization       0.0001534

 Broyden mixing:
  rms(total) = 0.10446E+01    rms(broyden)= 0.10413E+01
  rms(prec ) = 0.14682E+01
  weight for this iteration     100.00

 eigenvalues of (default mixing * dielectric matrix)
  average eigenvalue GAMMA=   1.6160
  1.5279  1.7040

 Free energy of the ion-electron system (eV)
  ---------------------------------------------------
  alpha Z        PSCENC =        31.69091381
  Ewald energy   TEWEN  =      -360.71913134
  -Hartree energ DENC   =      -253.07318339
  -exchange      EXHF   =         0.00000000
  -V(xc)+E(xc)   XCENC  =        58.95900867
  PAW double counting   =       399.80811756     -406.80837958
  entropy T*S    EENTRO =         0.00000000
  eigenvalues    EBANDS =       -96.42417765
  atomic energy  EATOM  =       588.50889549
  Solvation  Ediel_sol  =         0.00000000
  ---------------------------------------------------
  free energy    TOTEN  =       -38.05793642 eV

  energy without entropy =      -38.05793642  energy(sigma->0) =      -38.05793642


--------------------------------------------------------------------------------------------------------




--------------------------------------- Iteration      1(   8)  ---------------------------------------


    POTLOK:  cpu time    0.0086: real time    0.0098
    SETDIJ:  cpu time    0.0031: real time    0.0031
     EDDAV:  cpu time    0.9618: real time    0.9619
 BZINTS: Fermi energy:  2.156794; 16.000000 electrons
         Band energy:-120.357691;  BLOECHL correction: -0.000021
       DOS:  cpu time    0.0741: real time    0.0742
    CHARGE:  cpu time    0.0261: real time    0.0261
    MIXING:  cpu time    0.0003: real time    0.0003
    --------------------------------------------
      LOOP:  cpu time    1.0740: real time    1.0753

 eigenvalue-minimisations  :  9200
 total energy-change (2. order) : 0.4786641E-01  (-0.7150659E+00)
 number of electron      15.9999999 magnetization       0.0000008
 augmentation part        0.3939170 magnetization       0.0001335

 Broyden mixing:
  rms(total) = 0.42606E+00    rms(broyden)= 0.42600E+00
  rms(prec ) = 0.80385E+00
  weight for this iteration     100.00

 eigenvalues of (default mixing * dielectric matrix)
  average eigenvalue GAMMA=   1.9876
  0.8853  2.5388  2.5388

 Free energy of the ion-electron system (eV)
  ---------------------------------------------------
  alpha Z        PSCENC =        31.69091381
  Ewald energy   TEWEN  =      -360.71913134
  -Hartree energ DENC   =      -227.92909980
  -exchange      EXHF   =         0.00000000
  -V(xc)+E(xc)   XCENC  =        56.62262345
  PAW double counting   =       310.82867491     -316.65525538
  entropy T*S    EENTRO =         0.00000000
  eigenvalues    EBANDS =      -120.35769115
  atomic energy  EATOM  =       588.50889549
  Solvation  Ediel_sol  =         0.00000000
  ---------------------------------------------------
  free energy    TOTEN  =       -38.01007002 eV

  energy without entropy =      -38.01007002  energy(sigma->0) =      -38.01007002


--------------------------------------------------------------------------------------------------------




--------------------------------------- Iteration      1(   9)  ---------------------------------------


    POTLOK:  cpu time    0.0090: real time    0.0103
    SETDIJ:  cpu time    0.0030: real time    0.0030
     EDDAV:  cpu time    0.9594: real time    0.9594
 BZINTS: Fermi energy:  3.448511; 16.000000 electrons
         Band energy: -92.213177;  BLOECHL correction: -0.000029
       DOS:  cpu time    0.0772: real time    0.0772
    CHARGE:  cpu time    0.0261: real time    0.0261
    MIXING:  cpu time    0.0003: real time    0.0003
    --------------------------------------------
      LOOP:  cpu time    1.0750: real time    1.0763

 eigenvalue-minimisations  :  9160
 total energy-change (2. order) : 0.1171613E+01  (-0.1984789E+00)
 number of electron      16.0000000 magnetization      -0.0000006
 augmentation part        0.3862712 magnetization       0.0000132

 Broyden mixing:
  rms(total) = 0.10851E+00    rms(broyden)= 0.10833E+00
  rms(prec ) = 0.14842E+00
  weight for this iteration     100.00

 eigenvalues of (default mixing * dielectric matrix)
  average eigenvalue GAMMA=   1.6681
  2.5330  2.5330  0.8032  0.8032

 Free energy of the ion-electron system (eV)
  ---------------------------------------------------
  alpha Z        PSCENC =        31.69091381
  Ewald energy   TEWEN  =      -360.71913134
  -Hartree energ DENC   =      -256.57511368
  -exchange      EXHF   =         0.00000000
  -V(xc)+E(xc)   XCENC  =        57.45231852
  PAW double counting   =       278.29607976     -283.27924233
  entropy T*S    EENTRO =         0.00000000
  eigenvalues    EBANDS =       -92.21317725
  atomic energy  EATOM  =       588.50889549
  Solvation  Ediel_sol  =         0.00000000
  ---------------------------------------------------
  free energy    TOTEN  =       -36.83845703 eV

  energy without entropy =      -36.83845703  energy(sigma->0) =      -36.83845703


--------------------------------------------------------------------------------------------------------




--------------------------------------- Iteration      1(  10)  ---------------------------------------


    POTLOK:  cpu time    0.0089: real time    0.0098
    SETDIJ:  cpu time    0.0030: real time    0.0030
     EDDAV:  cpu time    0.8209: real time    0.8209
 BZINTS: Fermi energy:  3.359639; 16.000000 electrons
         Band energy: -92.646628;  BLOECHL correction: -0.000015
       DOS:  cpu time    0.0686: real time    0.0686
    CHARGE:  cpu time    0.0260: real time    0.0260
    MIXING:  cpu time    0.0003: real time    0.0003
    --------------------------------------------
      LOOP:  cpu time    0.9277: real time    0.9287

 eigenvalue-minimisations  :  7672
 total energy-change (2. order) :-0.2457421E-01  (-0.1511962E-01)
 number of electron      16.0000000 magnetization       0.0000001
 augmentation part        0.3818788 magnetization       0.0001320

 Broyden mixing:
  rms(total) = 0.44504E-01    rms(broyden)= 0.44471E-01
  rms(prec ) = 0.63414E-01
  weight for this iteration     100.00

 eigenvalues of (default mixing * dielectric matrix)
  average eigenvalue GAMMA=   1.7228
  2.7906  2.1164  2.1164  0.8763  0.7146

 Free energy of the ion-electron system (eV)
  ---------------------------------------------------
  alpha Z        PSCENC =        31.69091381
  Ewald energy   TEWEN  =      -360.71913134
  -Hartree energ DENC   =      -256.05825102
  -exchange      EXHF   =         0.00000000
  -V(xc)+E(xc)   XCENC  =        57.43302030
  PAW double counting   =       279.46535597     -284.53720636
  entropy T*S    EENTRO =         0.00000000
  eigenvalues    EBANDS =       -92.64662808
  atomic energy  EATOM  =       588.50889549
  Solvation  Ediel_sol  =         0.00000000
  ---------------------------------------------------
  free energy    TOTEN  =       -36.86303123 eV

  energy without entropy =      -36.86303123  energy(sigma->0) =      -36.86303123


--------------------------------------------------------------------------------------------------------




--------------------------------------- Iteration      1(  11)  ---------------------------------------


    POTLOK:  cpu time    0.0089: real time    0.0101
    SETDIJ:  cpu time    0.0031: real time    0.0031
     EDDAV:  cpu time    0.7956: real time    0.7957
 BZINTS: Fermi energy:  3.451969; 16.000000 electrons
         Band energy: -90.083763;  BLOECHL correction: -0.000014
       DOS:  cpu time    0.0686: real time    0.0686
    CHARGE:  cpu time    0.0262: real time    0.0262
    MIXING:  cpu time    0.0003: real time    0.0003
    --------------------------------------------
      LOOP:  cpu time    0.9028: real time    0.9041

 eigenvalue-minimisations  :  7360
 total energy-change (2. order) :-0.2459164E-01  (-0.7924810E-02)
 number of electron      16.0000000 magnetization      -0.0000000
 augmentation part        0.3798033 magnetization      -0.0000134

 Broyden mixing:
  rms(total) = 0.34445E-01    rms(broyden)= 0.34417E-01
  rms(prec ) = 0.49983E-01
  weight for this iteration     100.00

 eigenvalues of (default mixing * dielectric matrix)
  average eigenvalue GAMMA=   1.6593
  3.0566  2.2023  2.2023  0.9145  0.9145  0.6657

 Free energy of the ion-electron system (eV)
  ---------------------------------------------------
  alpha Z        PSCENC =        31.69091381
  Ewald energy   TEWEN  =      -360.71913134
  -Hartree energ DENC   =      -258.72968960
  -exchange      EXHF   =         0.00000000
  -V(xc)+E(xc)   XCENC  =        57.58674687
  PAW double counting   =       280.69190885     -285.83350360
  entropy T*S    EENTRO =         0.00000000
  eigenvalues    EBANDS =       -90.08376336
  atomic energy  EATOM  =       588.50889549
  Solvation  Ediel_sol  =         0.00000000
  ---------------------------------------------------
  free energy    TOTEN  =       -36.88762288 eV

  energy without entropy =      -36.88762288  energy(sigma->0) =      -36.88762288


--------------------------------------------------------------------------------------------------------




--------------------------------------- Iteration      1(  12)  ---------------------------------------


    POTLOK:  cpu time    0.0093: real time    0.0099
    SETDIJ:  cpu time    0.0031: real time    0.0031
     EDDAV:  cpu time    0.7976: real time    0.7977
 BZINTS: Fermi energy:  3.484084; 16.000000 electrons
         Band energy: -89.945903;  BLOECHL correction: -0.000013
       DOS:  cpu time    0.0686: real time    0.0686
    CHARGE:  cpu time    0.0264: real time    0.0264
    MIXING:  cpu time    0.0004: real time    0.0004
    --------------------------------------------
      LOOP:  cpu time    0.9055: real time    0.9061

 eigenvalue-minimisations  :  7368
 total energy-change (2. order) :-0.2361734E-01  (-0.1187872E-02)
 number of electron      16.0000000 magnetization       0.0000001
 augmentation part        0.3796292 magnetization       0.0000378

 Broyden mixing:
  rms(total) = 0.15839E-01    rms(broyden)= 0.15837E-01
  rms(prec ) = 0.26185E-01
  weight for this iteration     100.00

 eigenvalues of (default mixing * dielectric matrix)
  average eigenvalue GAMMA=   1.6031
  3.0563  2.3673  2.3673  1.0033  1.0033  0.7678  0.6563

 Free energy of the ion-electron system (eV)
  ---------------------------------------------------
  alpha Z        PSCENC =        31.69091381
  Ewald energy   TEWEN  =      -360.71913134
  -Hartree energ DENC   =      -258.89088142
  -exchange      EXHF   =         0.00000000
  -V(xc)+E(xc)   XCENC  =        57.58685367
  PAW double counting   =       279.93739383     -285.07938175
  entropy T*S    EENTRO =         0.00000000
  eigenvalues    EBANDS =       -89.94590250
  atomic energy  EATOM  =       588.50889549
  Solvation  Ediel_sol  =         0.00000000
  ---------------------------------------------------
  free energy    TOTEN  =       -36.91124021 eV

  energy without entropy =      -36.91124021  energy(sigma->0) =      -36.91124021


--------------------------------------------------------------------------------------------------------




--------------------------------------- Iteration      1(  13)  ---------------------------------------


    POTLOK:  cpu time    0.0086: real time    0.0099
    SETDIJ:  cpu time    0.0030: real time    0.0030
     EDDAV:  cpu time    0.8597: real time    0.8598
 BZINTS: Fermi energy:  3.450084; 16.000000 electrons
         Band energy: -90.861322;  BLOECHL correction: -0.000006
       DOS:  cpu time    0.0655: real time    0.0655
    CHARGE:  cpu time    0.0269: real time    0.0269
    MIXING:  cpu time    0.0004: real time    0.0004
    --------------------------------------------
      LOOP:  cpu time    0.9641: real time    0.9655

 eigenvalue-minimisations  :  8080
 total energy-change (2. order) :-0.1604478E-03  (-0.3240515E-03)
 number of electron      16.0000000 magnetization       0.0000001
 augmentation part        0.3802951 magnetization      -0.0000014

 Broyden mixing:
  rms(total) = 0.43011E-02    rms(broyden)= 0.42799E-02
  rms(prec ) = 0.62394E-02
  weight for this iteration     100.00

 eigenvalues of (default mixing * dielectric matrix)
  average eigenvalue GAMMA=   1.5272
  2.9819  2.7423  2.2280  0.9753  0.9753  0.9262  0.7467  0.6416

 Free energy of the ion-electron system (eV)
  ---------------------------------------------------
  alpha Z        PSCENC =        31.69091381
  Ewald energy   TEWEN  =      -360.71913134
  -Hartree energ DENC   =      -257.92524726
  -exchange      EXHF   =         0.00000000
  -V(xc)+E(xc)   XCENC  =        57.53562529
  PAW double counting   =       278.73396650     -283.87510116
  entropy T*S    EENTRO =         0.00000000
  eigenvalues    EBANDS =       -90.86132199
  atomic energy  EATOM  =       588.50889549
  Solvation  Ediel_sol  =         0.00000000
  ---------------------------------------------------
  free energy    TOTEN  =       -36.91140066 eV

  energy without entropy =      -36.91140066  energy(sigma->0) =      -36.91140066


--------------------------------------------------------------------------------------------------------




--------------------------------------- Iteration      1(  14)  ---------------------------------------


    POTLOK:  cpu time    0.0093: real time    0.0098
    SETDIJ:  cpu time    0.0030: real time    0.0030
     EDDAV:  cpu time    0.8814: real time    0.8814
 BZINTS: Fermi energy:  3.440602; 16.000000 electrons
         Band energy: -91.016094;  BLOECHL correction: -0.000011
       DOS:  cpu time    0.0629: real time    0.0629
    CHARGE:  cpu time    0.0263: real time    0.0263
    MIXING:  cpu time    0.0004: real time    0.0004
    --------------------------------------------
      LOOP:  cpu time    0.9833: real time    0.9839

 eigenvalue-minimisations  :  8168
 total energy-change (2. order) :-0.2138142E-03  (-0.3880457E-04)
 number of electron      16.0000000 magnetization       0.0000001
 augmentation part        0.3805423 magnetization      -0.0000018

 Broyden mixing:
  rms(total) = 0.24008E-02    rms(broyden)= 0.23946E-02
  rms(prec ) = 0.31099E-02
  weight for this iteration     100.00

 eigenvalues of (default mixing * dielectric matrix)
  average eigenvalue GAMMA=   1.4044
  3.0004  2.7275  2.2303  0.9932  0.9932  0.9461  0.7524  0.6483  0.3483

 Free energy of the ion-electron system (eV)
  ---------------------------------------------------
  alpha Z        PSCENC =        31.69091381
  Ewald energy   TEWEN  =      -360.71913134
  -Hartree energ DENC   =      -257.76424992
  -exchange      EXHF   =         0.00000000
  -V(xc)+E(xc)   XCENC  =        57.52668898
  PAW double counting   =       278.47035214     -283.60898994
  entropy T*S    EENTRO =         0.00000000
  eigenvalues    EBANDS =       -91.01609369
  atomic energy  EATOM  =       588.50889549
  Solvation  Ediel_sol  =         0.00000000
  ---------------------------------------------------
  free energy    TOTEN  =       -36.91161448 eV

  energy without entropy =      -36.91161448  energy(sigma->0) =      -36.91161448


--------------------------------------------------------------------------------------------------------




--------------------------------------- Iteration      1(  15)  ---------------------------------------


    POTLOK:  cpu time    0.0082: real time    0.0098
    SETDIJ:  cpu time    0.0030: real time    0.0030
     EDDAV:  cpu time    0.8609: real time    0.8610
 BZINTS: Fermi energy:  3.442499; 16.000000 electrons
         Band energy: -90.965877;  BLOECHL correction: -0.000013
       DOS:  cpu time    0.0599: real time    0.0600
    CHARGE:  cpu time    0.0263: real time    0.0263
    MIXING:  cpu time    0.0005: real time    0.0005
    --------------------------------------------
      LOOP:  cpu time    0.9589: real time    0.9606

 eigenvalue-minimisations  :  8104
 total energy-change (2. order) :-0.3441186E-04  (-0.2585929E-05)
 number of electron      16.0000000 magnetization       0.0000004
 augmentation part        0.3805391 magnetization       0.0000010

 Broyden mixing:
  rms(total) = 0.16408E-02    rms(broyden)= 0.16391E-02
  rms(prec ) = 0.20893E-02
  weight for this iteration     100.00

 eigenvalues of (default mixing * dielectric matrix)
  average eigenvalue GAMMA=   1.5066
  3.0707  2.4842  2.4842  1.7154  1.1999  0.9545  0.9545  0.8372  0.6429  0.7227

 Free energy of the ion-electron system (eV)
  ---------------------------------------------------
  alpha Z        PSCENC =        31.69091381
  Ewald energy   TEWEN  =      -360.71913134
  -Hartree energ DENC   =      -257.81782732
  -exchange      EXHF   =         0.00000000
  -V(xc)+E(xc)   XCENC  =        57.52940111
  PAW double counting   =       278.53256355     -283.67058708
  entropy T*S    EENTRO =         0.00000000
  eigenvalues    EBANDS =       -90.96587710
  atomic energy  EATOM  =       588.50889549
  Solvation  Ediel_sol  =         0.00000000
  ---------------------------------------------------
  free energy    TOTEN  =       -36.91164889 eV

  energy without entropy =      -36.91164889  energy(sigma->0) =      -36.91164889


--------------------------------------------------------------------------------------------------------




--------------------------------------- Iteration      1(  16)  ---------------------------------------


    POTLOK:  cpu time    0.0096: real time    0.0102
    SETDIJ:  cpu time    0.0030: real time    0.0030
     EDDAV:  cpu time    0.8040: real time    0.8040
 BZINTS: Fermi energy:  3.444832; 16.000000 electrons
         Band energy: -90.931170;  BLOECHL correction: -0.000026
       DOS:  cpu time    0.0743: real time    0.0743
    CHARGE:  cpu time    0.0258: real time    0.0258
    MIXING:  cpu time    0.0005: real time    0.0005
    --------------------------------------------
      LOOP:  cpu time    0.9172: real time    0.9178

 eigenvalue-minimisations  :  7464
 total energy-change (2. order) :-0.3238047E-04  (-0.3178022E-05)
 number of electron      16.0000000 magnetization       0.0000008
 augmentation part        0.3805069 magnetization       0.0000008

 Broyden mixing:
  rms(total) = 0.36140E-03    rms(broyden)= 0.35156E-03
  rms(prec ) = 0.50735E-03
  weight for this iteration     100.00

 eigenvalues of (default mixing * dielectric matrix)
  average eigenvalue GAMMA=   1.4758
  3.0647  2.5494  2.5494  2.0964  1.1087  0.9484  0.9484  0.8275  0.8275  0.6808
  0.6321

 Free energy of the ion-electron system (eV)
  ---------------------------------------------------
  alpha Z        PSCENC =        31.69091381
  Ewald energy   TEWEN  =      -360.71913134
  -Hartree energ DENC   =      -257.85454905
  -exchange      EXHF   =         0.00000000
  -V(xc)+E(xc)   XCENC  =        57.53138184
  PAW double counting   =       278.63957766     -283.77760014
  entropy T*S    EENTRO =         0.00000000
  eigenvalues    EBANDS =       -90.93116954
  atomic energy  EATOM  =       588.50889549
  Solvation  Ediel_sol  =         0.00000000
  ---------------------------------------------------
  free energy    TOTEN  =       -36.91168127 eV

  energy without entropy =      -36.91168127  energy(sigma->0) =      -36.91168127


--------------------------------------------------------------------------------------------------------




--------------------------------------- Iteration      1(  17)  ---------------------------------------


    POTLOK:  cpu time    0.0092: real time    0.0101
    SETDIJ:  cpu time    0.0032: real time    0.0032
     EDDAV:  cpu time    0.8843: real time    0.8845
 BZINTS: Fermi energy:  3.444266; 16.000000 electrons
         Band energy: -90.944882;  BLOECHL correction: -0.000026
       DOS:  cpu time    0.0659: real time    0.0659
    CHARGE:  cpu time    0.0261: real time    0.0261
    MIXING:  cpu time    0.0005: real time    0.0005
    --------------------------------------------
      LOOP:  cpu time    0.9892: real time    0.9903

 eigenvalue-minimisations  :  8352
 total energy-change (2. order) :-0.2740807E-05  (-0.5286082E-06)
 number of electron      16.0000000 magnetization       0.0000011
 augmentation part        0.3805127 magnetization       0.0000001

 Broyden mixing:
  rms(total) = 0.16537E-03    rms(broyden)= 0.16238E-03
  rms(prec ) = 0.20382E-03
  weight for this iteration     100.00

 eigenvalues of (default mixing * dielectric matrix)
  average eigenvalue GAMMA=   1.4278
  3.0637  2.5475  2.5475  2.1336  1.1392  1.0073  1.0073  0.7966  0.7966  0.6440
  0.7249  0.7249

 Free energy of the ion-electron system (eV)
  ---------------------------------------------------
  alpha Z        PSCENC =        31.69091381
  Ewald energy   TEWEN  =      -360.71913134
  -Hartree energ DENC   =      -257.84029059
  -exchange      EXHF   =         0.00000000
  -V(xc)+E(xc)   XCENC  =        57.53056467
  PAW double counting   =       278.62155591     -283.75931025
  entropy T*S    EENTRO =         0.00000000
  eigenvalues    EBANDS =       -90.94488172
  atomic energy  EATOM  =       588.50889549
  Solvation  Ediel_sol  =         0.00000000
  ---------------------------------------------------
  free energy    TOTEN  =       -36.91168401 eV

  energy without entropy =      -36.91168401  energy(sigma->0) =      -36.91168401


--------------------------------------------------------------------------------------------------------




--------------------------------------- Iteration      1(  18)  ---------------------------------------


    POTLOK:  cpu time    0.0090: real time    0.0098
    SETDIJ:  cpu time    0.0030: real time    0.0030
     EDDAV:  cpu time    0.7224: real time    0.7224
 BZINTS: Fermi energy:  3.444111; 16.000000 electrons
         Band energy: -90.949024;  BLOECHL correction: -0.000026
       DOS:  cpu time    0.0742: real time    0.0742
    --------------------------------------------
      LOOP:  cpu time    0.8086: real time    0.8094

 eigenvalue-minimisations  :  6104
 total energy-change (2. order) :-0.1980075E-06  (-0.3216165E-07)
 number of electron      16.0000000 magnetization       0.0000011
 augmentation part        0.3805127 magnetization       0.0000001

 Free energy of the ion-electron system (eV)
  ---------------------------------------------------
  alpha Z        PSCENC =        31.69091381
  Ewald energy   TEWEN  =      -360.71913134
  -Hartree energ DENC   =      -257.83601262
  -exchange      EXHF   =         0.00000000
  -V(xc)+E(xc)   XCENC  =        57.53031073
  PAW double counting   =       278.61425622     -283.75189219
  entropy T*S    EENTRO =         0.00000000
  eigenvalues    EBANDS =       -90.94902429
  atomic energy  EATOM  =       588.50889549
  Solvation  Ediel_sol  =         0.00000000
  ---------------------------------------------------
  free energy    TOTEN  =       -36.91168421 eV

  energy without entropy =      -36.91168421  energy(sigma->0) =      -36.91168421


--------------------------------------------------------------------------------------------------------




 average (electrostatic) potential at core
  the test charge radii are     0.6991
  (the norm of the test charge is              1.0000)
       1 -52.0041       2 -52.0041       3 -51.9982       4 -51.9982
 
 
 
 E-fermi :   3.4441     XC(G=0):  -9.2743     alpha+bet : -9.7614


 spin component 1

 k-point     1 :       0.0000    0.0000    0.0000
  band No.  band energies     occupation 
      1     -16.0991      1.00000
      2     -16.0153      1.00000
      3      -4.5673      1.00000
      4      -3.7193      1.00000
      5       0.4178      1.00000
[...]
  average eigenvalue GAMMA=   2.2094
  2.2094

  free energy =  -0.344259434199E+02  energy without entropy=  -0.344259434199E+02


--------------------------------------------------------------------------------------------------------




--------------------------------------- Iteration     14(   3)  ---------------------------------------


    POTLOK:  cpu time    0.0094: real time    0.0101
    SETDIJ:  cpu time    0.0031: real time    0.0031
     EDDAV:  cpu time    0.9075: real time    0.9075
 BZINTS: Fermi energy:  9.593465; 16.000000 electrons
         Band energy:   0.605778;  BLOECHL correction: -0.004587
       DOS:  cpu time    0.0867: real time    0.0867
    CHARGE:  cpu time    0.0267: real time    0.0267
    MIXING:  cpu time    0.0003: real time    0.0003
    --------------------------------------------
      LOOP:  cpu time    1.0336: real time    1.0344

 eigenvalue-minimisations  :  8608
 total energy-change (2. order) : 0.7849240E-03  (-0.1141219E-03)
 number of electron      15.9999999 magnetization       0.0000000
 augmentation part        0.4312610 magnetization       0.0000000

 eigenvalues of (default mixing * dielectric matrix)
  average eigenvalue GAMMA=   1.8001
  1.4787  2.1216

  free energy =  -0.344251584959E+02  energy without entropy=  -0.344251584959E+02


--------------------------------------------------------------------------------------------------------




--------------------------------------- Iteration     14(   4)  ---------------------------------------


    POTLOK:  cpu time    0.0089: real time    0.0102
    SETDIJ:  cpu time    0.0030: real time    0.0030
     EDDAV:  cpu time    0.8828: real time    0.8828
 BZINTS: Fermi energy:  9.593154; 16.000000 electrons
         Band energy:   0.581275;  BLOECHL correction: -0.004581
       DOS:  cpu time    0.0670: real time    0.0670
    CHARGE:  cpu time    0.0266: real time    0.0266
    MIXING:  cpu time    0.0003: real time    0.0003
    --------------------------------------------
      LOOP:  cpu time    0.9886: real time    0.9899

 eigenvalue-minimisations  :  8296
 total energy-change (2. order) : 0.1543337E-04  (-0.2802818E-05)
 number of electron      15.9999999 magnetization       0.0000001
 augmentation part        0.4312820 magnetization       0.0000000

 eigenvalues of (default mixing * dielectric matrix)
  average eigenvalue GAMMA=   1.7924
  1.0538  2.3807  1.9427

  free energy =  -0.344251430625E+02  energy without entropy=  -0.344251430625E+02


--------------------------------------------------------------------------------------------------------




--------------------------------------- Iteration     14(   5)  ---------------------------------------


    POTLOK:  cpu time    0.0090: real time    0.0105
    SETDIJ:  cpu time    0.0031: real time    0.0031
     EDDAV:  cpu time    0.7670: real time    0.7671
 BZINTS: Fermi energy:  9.593194; 16.000000 electrons
         Band energy:   0.577825;  BLOECHL correction: -0.004581
       DOS:  cpu time    0.0870: real time    0.0870
    CHARGE:  cpu time    0.0266: real time    0.0266
    MIXING:  cpu time    0.0003: real time    0.0003
    --------------------------------------------
      LOOP:  cpu time    0.8931: real time    0.8946

 eigenvalue-minimisations  :  6472
 total energy-change (2. order) : 0.2627584E-05  (-0.6117465E-07)
 number of electron      15.9999999 magnetization      -0.0000001
 augmentation part        0.4312962 magnetization      -0.0000001

 eigenvalues of (default mixing * dielectric matrix)
  average eigenvalue GAMMA=   1.6785
  2.5068  1.9842  0.9832  1.2396

  free energy =  -0.344251404349E+02  energy without entropy=  -0.344251404349E+02


--------------------------------------------------------------------------------------------------------




--------------------------------------- Iteration     14(   6)  ---------------------------------------


    POTLOK:  cpu time    0.0097: real time    0.0102
    SETDIJ:  cpu time    0.0031: real time    0.0031
     EDDAV:  cpu time    0.5706: real time    0.5706
 BZINTS: Fermi energy:  9.593160; 16.000000 electrons
         Band energy:   0.576926;  BLOECHL correction: -0.004582
       DOS:  cpu time    0.0841: real time    0.0841
    --------------------------------------------
      LOOP:  cpu time    0.6675: real time    0.6680

 eigenvalue-minimisations  :  3984
 total energy-change (2. order) : 0.5181113E-07  (-0.1094186E-07)
 number of electron      15.9999999 magnetization      -0.0000001
 augmentation part        0.4312962 magnetization      -0.0000001

  free energy =  -0.344251403831E+02  energy without entropy=  -0.344251403831E+02


--------------------------------------------------------------------------------------------------------




------------------------ aborting loop because EDIFF is reached ----------------------------------------


 


 total charge     
 
# of ion       s       p       d       tot
------------------------------------------
    1        0.912   1.930   0.000   2.842
    2        0.912   1.930   0.000   2.842
    3        0.904   1.966   0.000   2.870
    4        0.904   1.967   0.000   2.870
--------------------------------------------------
tot          3.632   7.792   0.000  11.424
 


 magnetization (x)
 
# of ion       s       p       d       tot
------------------------------------------
    1       -0.000   0.000   0.000   0.000
    2       -0.000   0.000   0.000   0.000
    3        0.000  -0.000   0.000  -0.000
    4        0.000  -0.000   0.000  -0.000
--------------------------------------------------
tot         -0.000  -0.000   0.000  -0.000
 
    CHARGE:  cpu time    0.0300: real time    0.0300
    FORLOC:  cpu time    0.0001: real time    0.0001
    FORNL :  cpu time    0.0458: real time    0.0458
    STRESS:  cpu time    0.0981: real time    0.0981
    FORHAR:  cpu time    0.0007: real time    0.0007
    MIXING:  cpu time    0.0003: real time    0.0003
    OFIELD:  cpu time    0.0000: real time    0.0000

  FORCE on cell =-STRESS in cart. coord.  units (eV):
  Direction    XX          YY          ZZ          XY          YZ          ZX
  --------------------------------------------------------------------------------------
  Alpha Z    58.48526    58.48526    58.48526
  Ewald     -95.51889   -95.51962  -469.35288    -0.00050     0.00000     0.00000
  Hartree    56.53625    56.53625   -36.38619    -0.00001    -0.00000     0.00000
  E(xc)     -61.17181   -61.17181   -62.44500    -0.00000     0.00000    -0.00000
  Local    -182.83614  -182.83589   245.83769     0.00024     0.00000    -0.00000
  n-local   -15.69411   -16.58839   -15.34061    -1.74625     0.03124     0.15740
  augment    -1.89484    -1.89480    -1.64454     0.00003     0.00000     0.00000
  Kinetic   253.78128   258.19613   294.50501     8.50217    -0.32124    -1.89018
  Fock        0.00000     0.00000     0.00000     0.00000     0.00000     0.00000
  -------------------------------------------------------------------------------------
  Total      13.44705    13.44706    13.65875    -0.00001     0.00000     0.00000
  in kB     966.52315   966.52371   981.73915    -0.00044     0.00000     0.00000
  external pressure =      -28.40 kB  Pullay stress =     1000.00 kB



--------------------------------------------------------------------------------------------------------



  FREE ENERGIE OF THE ION-ELECTRON SYSTEM (eV)
  ---------------------------------------------------
  free  energy   TOTEN  =       -34.42514038 eV

  energy  without entropy=      -34.42514038  energy(sigma->0) =      -34.42514038
  enthalpy is  TOTEN    =       -20.51233042 eV   P V=       13.91280996

 d Force = 0.0000000E+00[ 0.000E+00, 0.000E+00]  d Energy = 0.1271994E-01-0.127E-01
 d Force = 0.0000000E+00[ 0.000E+00, 0.000E+00]  d Ewald  =-0.3819560E+01 0.382E+01


--------------------------------------------------------------------------------------------------------


    POTLOK:  cpu time    0.0103: real time    0.0103


--------------------------------------------------------------------------------------------------------


 Conjugate gradient step on ions:
 trial-energy change:   -0.012720  1 .order   -0.012940   -0.033914    0.008033
  (g-gl).g =-0.834E-02      g.g   = 0.357E-02  gl.gl    = 0.201E+00
 g(Force)  = 0.278E-41   g(Stress)= 0.357E-02 ortho     = 0.347E-04
 gamma     =  -0.04154
 trial     =   9.50020
 opt step  =   7.63357  (harmonic =   7.68082) maximal distance =0.00000000
 next E    =   -20.513121   (d E  =  -0.01351)


--------------------------------------------------------------------------------------------------------


    WAVPRE:  cpu time    0.0014: real time    0.0036
    FEWALD:  cpu time    0.0001: real time    0.0001
    GENKIN:  cpu time    0.0059: real time    0.0059
    ORTHCH:  cpu time    0.0360: real time    0.0360
     LOOP+:  cpu time    5.8768: real time    5.8895


--------------------------------------- Iteration     15(   1)  ---------------------------------------


    POTLOK:  cpu time    0.0091: real time    0.0113
    SETDIJ:  cpu time    0.0033: real time    0.0033
     EDDAV:  cpu time    0.9115: real time    0.9116
 BZINTS: Fermi energy:  9.645570; 16.000000 electrons
         Band energy:   1.200558;  BLOECHL correction: -0.004629
       DOS:  cpu time    0.0867: real time    0.0867
    CHARGE:  cpu time    0.0268: real time    0.0268
    MIXING:  cpu time    0.0002: real time    0.0002
    --------------------------------------------
      LOOP:  cpu time    1.0375: real time    1.0399

 eigenvalue-minimisations  :  8504
 total energy-change (2. order) : 0.5229853E-01  (-0.6693141E-03)
 number of electron      16.0000000 magnetization       0.0000000
 augmentation part        0.4325354 magnetization       0.0000000

  free energy =  -0.343728419082E+02  energy without entropy=  -0.343728419082E+02


--------------------------------------------------------------------------------------------------------




--------------------------------------- Iteration     15(   2)  ---------------------------------------


    POTLOK:  cpu time    0.0096: real time    0.0100
    SETDIJ:  cpu time    0.0033: real time    0.0033
     EDDAV:  cpu time    0.8981: real time    0.8982
 BZINTS: Fermi energy:  9.642302; 16.000000 electrons
         Band energy:   1.128753;  BLOECHL correction: -0.004620
       DOS:  cpu time    0.0872: real time    0.0872
    CHARGE:  cpu time    0.0265: real time    0.0265
    MIXING:  cpu time    0.0002: real time    0.0002
    --------------------------------------------
      LOOP:  cpu time    1.0249: real time    1.0254

 eigenvalue-minimisations  :  8488
 total energy-change (2. order) : 0.7555205E-04  (-0.1259278E-04)
 number of electron      16.0000000 magnetization      -0.0000000
 augmentation part        0.4326370 magnetization      -0.0000001

 eigenvalues of (default mixing * dielectric matrix)
  average eigenvalue GAMMA=   2.2017
  2.2017

  free energy =  -0.343727663561E+02  energy without entropy=  -0.343727663561E+02


--------------------------------------------------------------------------------------------------------




--------------------------------------- Iteration     15(   3)  ---------------------------------------


    POTLOK:  cpu time    0.0099: real time    0.0107
    SETDIJ:  cpu time    0.0031: real time    0.0031
     EDDAV:  cpu time    0.9033: real time    0.9033
 BZINTS: Fermi energy:  9.638657; 16.000000 electrons
         Band energy:   1.052264;  BLOECHL correction: -0.004611
       DOS:  cpu time    0.0846: real time    0.0846
    CHARGE:  cpu time    0.0269: real time    0.0269
    MIXING:  cpu time    0.0002: real time    0.0002
    --------------------------------------------
      LOOP:  cpu time    1.0279: real time    1.0288

 eigenvalue-minimisations  :  8552
 total energy-change (2. order) : 0.3565432E-04  (-0.4376318E-05)
 number of electron      16.0000000 magnetization       0.0000000
 augmentation part        0.4327212 magnetization       0.0000000

 eigenvalues of (default mixing * dielectric matrix)
  average eigenvalue GAMMA=   1.7600
  1.3746  2.1454

  free energy =  -0.343727307018E+02  energy without entropy=  -0.343727307018E+02


--------------------------------------------------------------------------------------------------------




--------------------------------------- Iteration     15(   4)  ---------------------------------------


    POTLOK:  cpu time    0.0088: real time    0.0103
    SETDIJ:  cpu time    0.0031: real time    0.0031
     EDDAV:  cpu time    0.7279: real time    0.7279
 BZINTS: Fermi energy:  9.638698; 16.000000 electrons
         Band energy:   1.056650;  BLOECHL correction: -0.004612
       DOS:  cpu time    0.0896: real time    0.0896
    CHARGE:  cpu time    0.0269: real time    0.0269
    MIXING:  cpu time    0.0003: real time    0.0003
    --------------------------------------------
      LOOP:  cpu time    0.8564: real time    0.8580

 eigenvalue-minimisations  :  6192
 total energy-change (2. order) :-0.1262511E-05  (-0.1040525E-06)
 number of electron      16.0000000 magnetization      -0.0000001
 augmentation part        0.4327179 magnetization      -0.0000000

 eigenvalues of (default mixing * dielectric matrix)
  average eigenvalue GAMMA=   1.6332
  2.1862  1.8962  0.8171

  free energy =  -0.343727319643E+02  energy without entropy=  -0.343727319643E+02


--------------------------------------------------------------------------------------------------------




--------------------------------------- Iteration     15(   5)  ---------------------------------------


    POTLOK:  cpu time    0.0095: real time    0.0101
    SETDIJ:  cpu time    0.0031: real time    0.0031
     EDDAV:  cpu time    0.5635: real time    0.5636
 BZINTS: Fermi energy:  9.638699; 16.000000 electrons
         Band energy:   1.057525;  BLOECHL correction: -0.004612
       DOS:  cpu time    0.0890: real time    0.0891
    --------------------------------------------
      LOOP:  cpu time    0.6652: real time    0.6658

 eigenvalue-minimisations  :  3872
 total energy-change (2. order) :-0.2135008E-06  (-0.3932795E-08)
 number of electron      16.0000000 magnetization      -0.0000001
 augmentation part        0.4327179 magnetization      -0.0000000

  free energy =  -0.343727321778E+02  energy without entropy=  -0.343727321778E+02


--------------------------------------------------------------------------------------------------------




------------------------ aborting loop because EDIFF is reached ----------------------------------------


 


 total charge     
 
# of ion       s       p       d       tot
------------------------------------------
    1        0.914   1.934   0.000   2.848
    2        0.914   1.934   0.000   2.848
    3        0.905   1.971   0.000   2.876
    4        0.905   1.972   0.000   2.877
--------------------------------------------------
tot          3.637   7.811   0.000  11.449
 


 magnetization (x)
 
# of ion       s       p       d       tot
------------------------------------------
    1        0.000  -0.000   0.000  -0.000
    2        0.000  -0.000   0.000  -0.000
    3       -0.000   0.000   0.000   0.000
    4       -0.000   0.000   0.000   0.000
--------------------------------------------------
tot          0.000  -0.000   0.000  -0.000
 
    CHARGE:  cpu time    0.0275: real time    0.0275
    FORLOC:  cpu time    0.0001: real time    0.0001
    FORNL :  cpu time    0.0433: real time    0.0433
    STRESS:  cpu time    0.0923: real time    0.0923
    FORHAR:  cpu time    0.0006: real time    0.0006
    MIXING:  cpu time    0.0003: real time    0.0003
    OFIELD:  cpu time    0.0000: real time    0.0000

  FORCE on cell =-STRESS in cart. coord.  units (eV):
  Direction    XX          YY          ZZ          XY          YZ          ZX
  --------------------------------------------------------------------------------------
  Alpha Z    58.70976    58.70976    58.70976
  Ewald     -95.47547   -95.47620  -470.18693    -0.00051     0.00000    -0.00000
  Hartree    56.54838    56.54837   -36.45204    -0.00001    -0.00000     0.00000
  E(xc)     -61.22974   -61.22974   -62.50264    -0.00000     0.00000    -0.00000
  Local    -182.96690  -182.96665   246.39491     0.00024     0.00000    -0.00000
  n-local   -15.76884   -16.65456   -15.38531    -1.77909     0.03128     0.15760
  augment    -1.90585    -1.90581    -1.65124     0.00003     0.00000     0.00000
  Kinetic   254.24390   258.64290   294.81120     8.57152    -0.32206    -1.89580
  Fock        0.00000     0.00000     0.00000     0.00000     0.00000     0.00000
  -------------------------------------------------------------------------------------
  Total      13.91166    13.91166    13.73770    -0.00001     0.00000     0.00000
  in kB    1003.75528  1003.75584   991.20421    -0.00045     0.00000     0.00000
  external pressure =       -0.43 kB  Pullay stress =     1000.00 kB



--------------------------------------------------------------------------------------------------------



  FREE ENERGIE OF THE ION-ELECTRON SYSTEM (eV)
  ---------------------------------------------------
  free  energy   TOTEN  =       -34.37273218 eV

  energy  without entropy=      -34.37273218  energy(sigma->0) =      -34.37273218
  enthalpy is  TOTEN    =       -20.51312223 eV   P V=       13.85960995

 d Force = 0.0000000E+00[ 0.000E+00, 0.000E+00]  d Energy = 0.7918033E-03-0.792E-03
 d Force = 0.0000000E+00[ 0.000E+00, 0.000E+00]  d Ewald  = 0.7472088E+00-0.747E+00


--------------------------------------------------------------------------------------------------------


    POTLOK:  cpu time    0.0096: real time    0.0096


--------------------------------------------------------------------------------------------------------




--------------------------------------------------------------------------------------------------------


  
 reached required accuracy - stopping structural energy minimisation
     LOOP+:  cpu time    4.7963: real time    4.8085
    4ORBIT:  cpu time    0.0000: real time    0.0000
 


 total charge     
 
# of ion       s       p       d       tot
------------------------------------------
    1        0.914   1.934   0.000   2.848
    2        0.914   1.934   0.000   2.848
    3        0.905   1.971   0.000   2.876
    4        0.905   1.972   0.000   2.877
--------------------------------------------------
tot          3.637   7.811   0.000  11.449
 


 magnetization (x)
 
# of ion       s       p       d       tot
------------------------------------------
    1        0.000  -0.000   0.000  -0.000
    2        0.000  -0.000   0.000  -0.000
    3       -0.000   0.000   0.000   0.000
    4       -0.000   0.000   0.000   0.000
--------------------------------------------------
tot          0.000  -0.000   0.000  -0.000
 
 BZINTS: Fermi energy:  9.638699; 16.000000 electrons
         Band energy:   1.057525;  BLOECHL correction: -0.004612

 total amount of memory used by VASP MPI-rank0    35339. kBytes
=======================================================================

   base      :      30000. kBytes
   nonl-proj :       1376. kBytes
   fftplans  :        333. kBytes
   grid      :        783. kBytes
   one-center:          6. kBytes
   wavefun   :       2841. kBytes
 
  
  
 General timing and accounting informations for this job:
 ========================================================
  
                  Total CPU time used (sec):      122.550
                            User time (sec):      122.366
                          System time (sec):        0.184
                         Elapsed time (sec):      122.818
  
                   Maximum memory used (kb):       63584.
                   Average memory used (kb):           0.
  
                          Minor page faults:         7155
                          Major page faults:          361
                 Voluntary context switches:         1299
