PROCAR lm decomposed
# of k-points:  111         # of bands:   16         # of ions:    4

 k-point     1 :    0.00000000 0.00000000 0.00000000     weight = 0.00077160

band     1 # energy  -12.40751737 # occ.  1.00000000
 
ion      s     py     pz     px    dxy    dyz    dz2    dxz  x2-y2    tot
    1  0.161  0.000  0.000  0.000  0.000  0.000  0.000  0.000  0.000  0.161
    2  0.161  0.000  0.000  0.000  0.000  0.000  0.000  0.000  0.000  0.161
    3  0.158  0.000  0.000  0.000  0.000  0.000  0.000  0.000  0.000  0.158
    4  0.158  0.000  0.000  0.000  0.000  0.000  0.000  0.000  0.000  0.158
tot    0.638  0.000  0.000  0.000  0.000  0.000  0.000  0.000  0.000  0.638
 
band     2 # energy   -9.48814664 # occ.  1.00000000
 
ion      s     py     pz     px    dxy    dyz    dz2    dxz  x2-y2    tot
    1  0.189  0.000  0.000  0.000  0.000  0.000  0.000  0.000  0.000  0.189
    2  0.189  0.000  0.000  0.000  0.000  0.000  0.000  0.000  0.000  0.189
    3  0.189  0.000  0.000  0.000  0.000  0.000  0.000  0.000  0.000  0.189
    4  0.189  0.000  0.000  0.000  0.000  0.000  0.000  0.000  0.000  0.189
tot    0.755  0.000  0.000  0.000  0.000  0.000  0.000  0.000  0.000  0.755
 
band     3 # energy   -2.33884781 # occ.  1.00000000
 
ion      s     py     pz     px    dxy    dyz    dz2    dxz  x2-y2    tot
    1  0.000  0.000  0.105  0.000  0.000  0.000  0.000  0.000  0.000  0.105
    2  0.000  0.000  0.105  0.000  0.000  0.000  0.000  0.000  0.000  0.105
    3  0.000  0.000  0.098  0.000  0.000  0.000  0.000  0.000  0.000  0.098
    4  0.000  0.000  0.098  0.000  0.000  0.000  0.000  0.000  0.000  0.098
tot    0.000  0.000  0.407  0.000  0.000  0.000  0.000  0.000  0.000  0.407
 
band     4 # energy    6.50781268 # occ.  1.00000000
 
ion      s     py     pz     px    dxy    dyz    dz2    dxz  x2-y2    tot
    1  0.000  0.000  0.165  0.000  0.000  0.000  0.000  0.000  0.000  0.165
    2  0.000  0.000  0.165  0.000  0.000  0.000  0.000  0.000  0.000  0.165
    3  0.000  0.000  0.175  0.000  0.000  0.000  0.000  0.000  0.000  0.175
    4  0.000  0.000  0.175  0.000  0.000  0.000  0.000  0.000  0.000  0.175
tot    0.000  0.000  0.679  0.000  0.000  0.000  0.000  0.000  0.000  0.679
 
band     5 # energy    6.66223318 # occ.  1.00000000
 
ion      s     py     pz     px    dxy    dyz    dz2    dxz  x2-y2    tot
    1  0.000  0.056  0.000  0.172  0.000  0.000  0.000  0.000  0.000  0.228
    2  0.000  0.056  0.000  0.172  0.000  0.000  0.000  0.000  0.000  0.228
    3  0.000  0.052  0.000  0.157  0.000  0.000  0.000  0.000  0.000  0.209
    4  0.000  0.052  0.000  0.157  0.000  0.000  0.000  0.000  0.000  0.209
tot    0.000  0.216  0.000  0.659  0.000  0.000  0.000  0.000  0.000  0.874
 
band     6 # energy    6.66229441 # occ.  1.00000000
 
ion      s     py     pz     px    dxy    dyz    dz2    dxz  x2-y2    tot
    1  0.000  0.172  0.000  0.056  0.000  0.000  0.000  0.000  0.000  0.228
    2  0.000  0.172  0.000  0.056  0.000  0.000  0.000  0.000  0.000  0.228
    3  0.000  0.157  0.000  0.052  0.000  0.000  0.000  0.000  0.000  0.209
    4  0.000  0.157  0.000  0.052  0.000  0.000  0.000  0.000  0.000  0.209
tot    0.000  0.659  0.000  0.216  0.000  0.000  0.000  0.000  0.000  0.874
 
band     7 # energy    7.03925609 # occ.  1.00000000
 
ion      s     py     pz     px    dxy    dyz    dz2    dxz  x2-y2    tot
    1  0.000  0.053  0.000  0.164  0.000  0.000  0.000  0.000  0.000  0.217
    2  0.000  0.053  0.000  0.164  0.000  0.000  0.000  0.000  0.000  0.217
    3  0.000  0.056  0.000  0.173  0.000  0.000  0.000  0.000  0.000  0.229
    4  0.000  0.056  0.000  0.173  0.000  0.000  0.000  0.000  0.000  0.229
tot    0.000  0.218  0.000  0.674  0.000  0.000  0.000  0.000  0.000  0.892
 
band     8 # energy    7.03931476 # occ.  1.00000000
 
ion      s     py     pz     px    dxy    dyz    dz2    dxz  x2-y2    tot
    1  0.000  0.164  0.000  0.053  0.000  0.000  0.000  0.000  0.000  0.217
    2  0.000  0.164  0.000  0.053  0.000  0.000  0.000  0.000  0.000  0.217
    3  0.000  0.173  0.000  0.056  0.000  0.000  0.000  0.000  0.000  0.229
    4  0.000  0.173  0.000  0.056  0.000  0.000  0.000  0.000  0.000  0.229
tot    0.000  0.674  0.000  0.218  0.000  0.000  0.000  0.000  0.000  0.892
 
band     9 # energy   18.72046999 # occ.  0.00000000
 
ion      s     py     pz     px    dxy    dyz    dz2    dxz  x2-y2    tot
    1  0.000  0.121  0.000  0.022  0.000  0.000  0.000  0.000  0.000  0.143
    2  0.000  0.121  0.000  0.022  0.000  0.000  0.000  0.000  0.000  0.143
    3  0.000  0.095  0.000  0.018  0.000  0.000  0.000  0.000  0.000  0.112
    4  0.000  0.095  0.000  0.018  0.000  0.000  0.000  0.000  0.000  0.112
tot    0.000  0.431  0.000  0.080  0.000  0.000  0.000  0.000  0.000  0.510
 
band    10 # energy   18.72053104 # occ.  0.00000000
 
ion      s     py     pz     px    dxy    dyz    dz2    dxz  x2-y2    tot
    1  0.000  0.022  0.000  0.121  0.000  0.000  0.000  0.000  0.000  0.143
    2  0.000  0.022  0.000  0.121  0.000  0.000  0.000  0.000  0.000  0.143
    3  0.000  0.018  0.000  0.095  0.000  0.000  0.000  0.000  0.000  0.112
    4  0.000  0.018  0.000  0.095  0.000  0.000  0.000  0.000  0.000  0.112
tot    0.000  0.080  0.000  0.431  0.000  0.000  0.000  0.000  0.000  0.510
 
band    11 # energy   19.38729448 # occ.  0.00000000
 
ion      s     py     pz     px    dxy    dyz    dz2    dxz  x2-y2    tot
    1  0.000  0.096  0.000  0.019  0.000  0.000  0.000  0.000  0.000  0.116
    2  0.000  0.096  0.000  0.019  0.000  0.000  0.000  0.000  0.000  0.116
    3  0.000  0.128  0.000  0.026  0.000  0.000  0.000  0.000  0.000  0.153
    4  0.000  0.128  0.000  0.026  0.000  0.000  0.000  0.000  0.000  0.153
tot    0.000  0.448  0.000  0.090  0.000  0.000  0.000  0.000  0.000  0.538
 
band    12 # energy   19.38736322 # occ.  0.00000000
 
ion      s     py     pz     px    dxy    dyz    dz2    dxz  x2-y2    tot
    1  0.000  0.019  0.000  0.096  0.000  0.000  0.000  0.000  0.000  0.116
    2  0.000  0.019  0.000  0.096  0.000  0.000  0.000  0.000  0.000  0.116
    3  0.000  0.026  0.000  0.128  0.000  0.000  0.000  0.000  0.000  0.153
    4  0.000  0.026  0.000  0.128  0.000  0.000  0.000  0.000  0.000  0.153
tot    0.000  0.090  0.000  0.448  0.000  0.000  0.000  0.000  0.000  0.538
 
band    13 # energy   20.45041885 # occ.  0.00000000
 
ion      s     py     pz     px    dxy    dyz    dz2    dxz  x2-y2    tot
    1  0.035  0.000  0.000  0.000  0.000  0.000  0.000  0.000  0.000  0.035
    2  0.035  0.000  0.000  0.000  0.000  0.000  0.000  0.000  0.000  0.035
    3  0.048  0.000  0.000  0.000  0.000  0.000  0.000  0.000  0.000  0.048
    4  0.048  0.000  0.000  0.000  0.000  0.000  0.000  0.000  0.000  0.048
tot    0.165  0.000  0.000  0.000  0.000  0.000  0.000  0.000  0.000  0.165
 
band    14 # energy   21.71617751 # occ.  0.00000000
 
ion      s     py     pz     px    dxy    dyz    dz2    dxz  x2-y2    tot
    1  0.000  0.000  0.201  0.000  0.000  0.000  0.000  0.000  0.000  0.201
    2  0.000  0.000  0.201  0.000  0.000  0.000  0.000  0.000  0.000  0.201
    3  0.000  0.000  0.170  0.000  0.000  0.000  0.000  0.000  0.000  0.170
    4  0.000  0.000  0.170  0.000  0.000  0.000  0.000  0.000  0.000  0.170
tot    0.000  0.000  0.743  0.000  0.000  0.000  0.000  0.000  0.000  0.743
 
band    15 # energy   23.92992149 # occ.  0.00000000
 
ion      s     py     pz     px    dxy    dyz    dz2    dxz  x2-y2    tot
    1  0.000  0.000  0.206  0.000  0.000  0.000  0.000  0.000  0.000  0.206
    2  0.000  0.000  0.206  0.000  0.000  0.000  0.000  0.000  0.000  0.206
    3  0.000  0.000  0.202  0.000  0.000  0.000  0.000  0.000  0.000  0.202
    4  0.000  0.000  0.202  0.000  0.000  0.000  0.000  0.000  0.000  0.202
tot    0.000  0.000  0.817  0.000  0.000  0.000  0.000  0.000  0.000  0.817
 
band    16 # energy   24.21826287 # occ.  0.00000000
 
ion      s     py     pz     px    dxy    dyz    dz2    dxz  x2-y2    tot
    1  0.183  0.000  0.000  0.000  0.000  0.000  0.000  0.000  0.000  0.183
    2  0.183  0.000  0.000  0.000  0.000  0.000  0.000  0.000  0.000  0.183
    3  0.132  0.000  0.000  0.000  0.000  0.000  0.000  0.000  0.000  0.132
    4  0.132  0.000  0.000  0.000  0.000  0.000  0.000  0.000  0.000  0.132
tot    0.629  0.000  0.000  0.000  0.000  0.000  0.000  0.000  0.000  0.629
 

 k-point     2 :    0.05555556 0.00000000 0.00000000     weight = 0.00462963

band     1 # energy  -12.32408527 # occ.  1.00000000
 
ion      s     py     pz     px    dxy    dyz    dz2    dxz  x2-y2    tot
    1  0.160  0.000  0.000  0.001  0.000  0.000  0.000  0.000  0.000  0.161
    2  0.160  0.000  0.000  0.001  0.000  0.000  0.000  0.000  0.000  0.161
    3  0.157  0.000  0.000  0.001  0.000  0.000  0.000  0.000  0.000  0.158
    4  0.157  0.000  0.000  0.001  0.000  0.000  0.000  0.000  0.000  0.158
tot    0.636  0.001  0.000  0.002  0.000  0.000  0.000  0.000  0.000  0.639
 
band     2 # energy   -9.41358424 # occ.  1.00000000
 
ion      s     py     pz     px    dxy    dyz    dz2    dxz  x2-y2    tot
    1  0.188  0.000  0.000  0.001  0.000  0.000  0.000  0.000  0.000  0.189
    2  0.188  0.000  0.000  0.001  0.000  0.000  0.000  0.000  0.000  0.189
    3  0.188  0.000  0.000  0.001  0.000  0.000  0.000  0.000  0.000  0.189
    4  0.188  0.000  0.000  0.001  0.000  0.000  0.000  0.000  0.000  0.189
tot    0.751  0.001  0.000  0.003  0.000  0.000  0.000  0.000  0.000  0.756
 
band     3 # energy   -2.23719427 # occ.  1.00000000
 
ion      s     py     pz     px    dxy    dyz    dz2    dxz  x2-y2    tot
    1  0.000  0.000  0.106  0.000  0.000  0.000  0.000  0.000  0.000  0.106
    2  0.000  0.000  0.106  0.000  0.000  0.000  0.000  0.000  0.000  0.106
    3  0.000  0.000  0.098  0.000  0.000  0.000  0.000  0.000  0.000  0.098
    4  0.000  0.000  0.098  0.000  0.000  0.000  0.000  0.000  0.000  0.098
tot    0.000  0.000  0.407  0.000  0.000  0.000  0.000  0.000  0.000  0.407
 
band     4 # energy    6.29058900 # occ.  1.00000000
 
ion      s     py     pz     px    dxy    dyz    dz2    dxz  x2-y2    tot
    1  0.004  0.055  0.000  0.165  0.000  0.000  0.000  0.000  0.000  0.224
    2  0.004  0.055  0.000  0.165  0.000  0.000  0.000  0.000  0.000  0.224
    3  0.004  0.051  0.000  0.153  0.000  0.000  0.000  0.000  0.000  0.208
    4  0.004  0.051  0.000  0.153  0.000  0.000  0.000  0.000  0.000  0.208
tot    0.017  0.212  0.000  0.636  0.000  0.000  0.000  0.000  0.000  0.864
 
band     5 # energy    6.44082240 # occ.  1.00000000
 
ion      s     py     pz     px    dxy    dyz    dz2    dxz  x2-y2    tot
    1  0.000  0.168  0.000  0.056  0.000  0.000  0.000  0.000  0.000  0.224
    2  0.000  0.168  0.000  0.056  0.000  0.000  0.000  0.000  0.000  0.224
    3  0.000  0.157  0.000  0.052  0.000  0.000  0.000  0.000  0.000  0.209
    4  0.000  0.157  0.000  0.052  0.000  0.000  0.000  0.000  0.000  0.209
tot    0.000  0.651  0.000  0.217  0.000  0.000  0.000  0.000  0.000  0.867
 
band     6 # energy    6.58839883 # occ.  1.00000000
 
ion      s     py     pz     px    dxy    dyz    dz2    dxz  x2-y2    tot
    1  0.000  0.000  0.165  0.000  0.000  0.000  0.000  0.000  0.000  0.165
    2  0.000  0.000  0.165  0.000  0.000  0.000  0.000  0.000  0.000  0.165
    3  0.000  0.000  0.175  0.000  0.000  0.000  0.000  0.000  0.000  0.175
    4  0.000  0.000  0.175  0.000  0.000  0.000  0.000  0.000  0.000  0.175
tot    0.000  0.000  0.679  0.000  0.000  0.000  0.000  0.000  0.000  0.679
 
band     7 # energy    6.77095317 # occ.  1.00000000
 
ion      s     py     pz     px    dxy    dyz    dz2    dxz  x2-y2    tot
    1  0.004  0.054  0.000  0.161  0.000  0.000  0.000  0.000  0.000  0.218
    2  0.004  0.054  0.000  0.161  0.000  0.000  0.000  0.000  0.000  0.218
    3  0.004  0.056  0.000  0.167  0.000  0.000  0.000  0.000  0.000  0.227
    4  0.004  0.056  0.000  0.167  0.000  0.000  0.000  0.000  0.000  0.227
tot    0.016  0.218  0.000  0.656  0.000  0.000  0.000  0.000  0.000  0.890
 
band     8 # energy    6.89653797 # occ.  1.00000000
 
ion      s     py     pz     px    dxy    dyz    dz2    dxz  x2-y2    tot
    1  0.000  0.164  0.000  0.055  0.000  0.000  0.000  0.000  0.000  0.219
    2  0.000  0.164  0.000  0.055  0.000  0.000  0.000  0.000  0.000  0.219
    3  0.000  0.170  0.000  0.057  0.000  0.000  0.000  0.000  0.000  0.227
    4  0.000  0.170  0.000  0.057  0.000  0.000  0.000  0.000  0.000  0.227
tot    0.000  0.668  0.000  0.223  0.000  0.000  0.000  0.000  0.000  0.891
 
band     9 # energy   18.71888631 # occ.  0.00000000
 
ion      s     py     pz     px    dxy    dyz    dz2    dxz  x2-y2    tot
    1  0.002  0.034  0.000  0.103  0.000  0.000  0.000  0.000  0.000  0.139
    2  0.002  0.034  0.000  0.103  0.000  0.000  0.000  0.000  0.000  0.139
    3  0.004  0.027  0.000  0.080  0.000  0.000  0.000  0.000  0.000  0.111
    4  0.004  0.027  0.000  0.080  0.000  0.000  0.000  0.000  0.000  0.111
tot    0.011  0.122  0.000  0.367  0.000  0.000  0.000  0.000  0.000  0.500
 
band    10 # energy   19.07532558 # occ.  0.00000000
 
ion      s     py     pz     px    dxy    dyz    dz2    dxz  x2-y2    tot
    1  0.000  0.107  0.000  0.036  0.000  0.000  0.000  0.000  0.000  0.143
    2  0.000  0.107  0.000  0.036  0.000  0.000  0.000  0.000  0.000  0.143
    3  0.000  0.086  0.000  0.029  0.000  0.000  0.000  0.000  0.000  0.115
    4  0.000  0.086  0.000  0.029  0.000  0.000  0.000  0.000  0.000  0.115
tot    0.000  0.386  0.000  0.129  0.000  0.000  0.000  0.000  0.000  0.515
 
band    11 # energy   19.39673705 # occ.  0.00000000
 
ion      s     py     pz     px    dxy    dyz    dz2    dxz  x2-y2    tot
    1  0.001  0.027  0.000  0.080  0.000  0.000  0.000  0.000  0.000  0.108
    2  0.001  0.027  0.000  0.080  0.000  0.000  0.000  0.000  0.000  0.108
    3  0.000  0.037  0.000  0.110  0.000  0.000  0.000  0.000  0.000  0.147
    4  0.000  0.037  0.000  0.110  0.000  0.000  0.000  0.000  0.000  0.147
tot    0.002  0.127  0.000  0.380  0.000  0.000  0.000  0.000  0.000  0.509
 
band    12 # energy   19.76161886 # occ.  0.00000000
 
ion      s     py     pz     px    dxy    dyz    dz2    dxz  x2-y2    tot
    1  0.000  0.089  0.000  0.030  0.000  0.000  0.000  0.000  0.000  0.119
    2  0.000  0.089  0.000  0.030  0.000  0.000  0.000  0.000  0.000  0.119
    3  0.000  0.115  0.000  0.038  0.000  0.000  0.000  0.000  0.000  0.153
    4  0.000  0.115  0.000  0.038  0.000  0.000  0.000  0.000  0.000  0.153
tot    0.000  0.408  0.000  0.136  0.000  0.000  0.000  0.000  0.000  0.544
 
band    13 # energy   20.60565996 # occ.  0.00000000
 
ion      s     py     pz     px    dxy    dyz    dz2    dxz  x2-y2    tot
    1  0.040  0.001  0.000  0.003  0.000  0.000  0.000  0.000  0.000  0.044
    2  0.040  0.001  0.000  0.003  0.000  0.000  0.000  0.000  0.000  0.044
    3  0.047  0.001  0.000  0.004  0.000  0.000  0.000  0.000  0.000  0.052
    4  0.047  0.001  0.000  0.004  0.000  0.000  0.000  0.000  0.000  0.052
tot    0.174  0.004  0.000  0.013  0.000  0.000  0.000  0.000  0.000  0.192
 
band    14 # energy   21.35485889 # occ.  0.00000000
 
ion      s     py     pz     px    dxy    dyz    dz2    dxz  x2-y2    tot
    1  0.000  0.000  0.197  0.000  0.000  0.000  0.000  0.000  0.000  0.197
    2  0.000  0.000  0.197  0.000  0.000  0.000  0.000  0.000  0.000  0.197
    3  0.000  0.000  0.166  0.000  0.000  0.000  0.000  0.000  0.000  0.166
    4  0.000  0.000  0.166  0.000  0.000  0.000  0.000  0.000  0.000  0.166
tot    0.000  0.000  0.725  0.000  0.000  0.000  0.000  0.000  0.000  0.725
 
band    15 # energy   23.63309133 # occ.  0.00000000
 
ion      s     py     pz     px    dxy    dyz    dz2    dxz  x2-y2    tot
    1  0.000  0.000  0.203  0.000  0.000  0.000  0.000  0.000  0.000  0.203
    2  0.000  0.000  0.203  0.000  0.000  0.000  0.000  0.000  0.000  0.203
    3  0.000  0.000  0.198  0.000  0.000  0.000  0.000  0.000  0.000  0.198
    4  0.000  0.000  0.198  0.000  0.000  0.000  0.000  0.000  0.000  0.198
tot    0.000  0.000  0.802  0.000  0.000  0.000  0.000  0.000  0.000  0.802
 
band    16 # energy   24.36530483 # occ.  0.00000000
 
ion      s     py     pz     px    dxy    dyz    dz2    dxz  x2-y2    tot
    1  0.172  0.003  0.000  0.008  0.000  0.000  0.000  0.000  0.000  0.183
    2  0.172  0.003  0.000  0.008  0.000  0.000  0.000  0.000  0.000  0.183
    3  0.132  0.000  0.000  0.001  0.000  0.000  0.000  0.000  0.000  0.133
    4  0.132  0.000  0.000  0.001  0.000  0.000  0.000  0.000  0.000  0.133
tot    0.607  0.006  0.000  0.019  0.000  0.000  0.000  0.000  0.000  0.633
 

 k-point     3 :    0.11111111 0.00000000 0.00000000     weight = 0.00462963

band     1 # energy  -12.07397413 # occ.  1.00000000
 
ion      s     py     pz     px    dxy    dyz    dz2    dxz  x2-y2    tot
    1  0.159  0.001  0.000  0.002  0.000  0.000  0.000  0.000  0.000  0.162
    2  0.159  0.001  0.000  0.002  0.000  0.000  0.000  0.000  0.000  0.162
    3  0.155  0.001  0.000  0.003  0.000  0.000  0.000  0.000  0.000  0.159
    4  0.155  0.001  0.000  0.003  0.000  0.000  0.000  0.000  0.000  0.159
tot    0.628  0.003  0.000  0.010  0.000  0.000  0.000  0.000  0.000  0.642
 
band     2 # energy   -9.19043920 # occ.  1.00000000
 
ion      s     py     pz     px    dxy    dyz    dz2    dxz  x2-y2    tot
    1  0.185  0.001  0.000  0.003  0.000  0.000  0.000  0.000  0.000  0.189
    2  0.185  0.001  0.000  0.003  0.000  0.000  0.000  0.000  0.000  0.189
    3  0.185  0.001  0.000  0.003  0.000  0.000  0.000  0.000  0.000  0.189
    4  0.185  0.001  0.000  0.003  0.000  0.000  0.000  0.000  0.000  0.189
tot    0.741  0.004  0.000  0.012  0.000  0.000  0.000  0.000  0.000  0.757
 
band     3 # energy   -1.93287418 # occ.  1.00000000
 
ion      s     py     pz     px    dxy    dyz    dz2    dxz  x2-y2    tot
    1  0.000  0.000  0.106  0.000  0.000  0.000  0.000  0.000  0.000  0.106
    2  0.000  0.000  0.106  0.000  0.000  0.000  0.000  0.000  0.000  0.106
    3  0.000  0.000  0.098  0.000  0.000  0.000  0.000  0.000  0.000  0.098
    4  0.000  0.000  0.098  0.000  0.000  0.000  0.000  0.000  0.000  0.098
tot    0.000  0.000  0.408  0.000  0.000  0.000  0.000  0.000  0.000  0.408
 
band     4 # energy    5.29863484 # occ.  1.00000000
 
ion      s     py     pz     px    dxy    dyz    dz2    dxz  x2-y2    tot
    1  0.015  0.050  0.000  0.151  0.000  0.000  0.000  0.000  0.000  0.216
    2  0.015  0.050  0.000  0.151  0.000  0.000  0.000  0.000  0.000  0.216
    3  0.014  0.048  0.000  0.143  0.000  0.000  0.000  0.000  0.000  0.205
    4  0.014  0.048  0.000  0.143  0.000  0.000  0.000  0.000  0.000  0.205
tot    0.058  0.196  0.000  0.588  0.000  0.000  0.000  0.000  0.000  0.842
 
band     5 # energy    5.88974517 # occ.  1.00000000
 
ion      s     py     pz     px    dxy    dyz    dz2    dxz  x2-y2    tot
    1  0.000  0.164  0.000  0.055  0.000  0.000  0.000  0.000  0.000  0.218
    2  0.000  0.164  0.000  0.055  0.000  0.000  0.000  0.000  0.000  0.218
    3  0.000  0.156  0.000  0.052  0.000  0.000  0.000  0.000  0.000  0.209
    4  0.000  0.156  0.000  0.052  0.000  0.000  0.000  0.000  0.000  0.209
tot    0.000  0.640  0.000  0.214  0.000  0.000  0.000  0.000  0.000  0.854
 
band     6 # energy    6.00115781 # occ.  1.00000000
 
ion      s     py     pz     px    dxy    dyz    dz2    dxz  x2-y2    tot
    1  0.014  0.051  0.000  0.153  0.000  0.000  0.000  0.000  0.000  0.218
    2  0.014  0.051  0.000  0.153  0.000  0.000  0.000  0.000  0.000  0.218
    3  0.014  0.052  0.000  0.156  0.000  0.000  0.000  0.000  0.000  0.223
    4  0.014  0.052  0.000  0.156  0.000  0.000  0.000  0.000  0.000  0.223
tot    0.056  0.206  0.000  0.619  0.000  0.000  0.000  0.000  0.000  0.881
 
band     7 # energy    6.48453004 # occ.  1.00000000
 
ion      s     py     pz     px    dxy    dyz    dz2    dxz  x2-y2    tot
    1  0.000  0.165  0.000  0.055  0.000  0.000  0.000  0.000  0.000  0.220
    2  0.000  0.165  0.000  0.055  0.000  0.000  0.000  0.000  0.000  0.220
    3  0.000  0.167  0.000  0.056  0.000  0.000  0.000  0.000  0.000  0.223
    4  0.000  0.167  0.000  0.056  0.000  0.000  0.000  0.000  0.000  0.223
tot    0.000  0.665  0.000  0.222  0.000  0.000  0.000  0.000  0.000  0.887
 
band     8 # energy    6.82745712 # occ.  1.00000000
 
ion      s     py     pz     px    dxy    dyz    dz2    dxz  x2-y2    tot
    1  0.000  0.000  0.164  0.000  0.000  0.000  0.000  0.000  0.000  0.164
    2  0.000  0.000  0.164  0.000  0.000  0.000  0.000  0.000  0.000  0.164
    3  0.000  0.000  0.176  0.000  0.000  0.000  0.000  0.000  0.000  0.176
    4  0.000  0.000  0.176  0.000  0.000  0.000  0.000  0.000  0.000  0.176
tot    0.000  0.000  0.680  0.000  0.000  0.000  0.000  0.000  0.000  0.680
 
band     9 # energy   18.60626617 # occ.  0.00000000
 
ion      s     py     pz     px    dxy    dyz    dz2    dxz  x2-y2    tot
    1  0.009  0.029  0.000  0.088  0.000  0.000  0.000  0.000  0.000  0.127
    2  0.009  0.029  0.000  0.088  0.000  0.000  0.000  0.000  0.000  0.127
    3  0.017  0.023  0.000  0.069  0.000  0.000  0.000  0.000  0.000  0.109
    4  0.017  0.023  0.000  0.069  0.000  0.000  0.000  0.000  0.000  0.109
tot    0.053  0.105  0.000  0.314  0.000  0.000  0.000  0.000  0.000  0.472
 
band    10 # energy   19.50239297 # occ.  0.00000000
 
ion      s     py     pz     px    dxy    dyz    dz2    dxz  x2-y2    tot
    1  0.006  0.024  0.000  0.073  0.000  0.000  0.000  0.000  0.000  0.104
    2  0.006  0.024  0.000  0.073  0.000  0.000  0.000  0.000  0.000  0.104
    3  0.000  0.033  0.000  0.100  0.000  0.000  0.000  0.000  0.000  0.134
    4  0.000  0.033  0.000  0.100  0.000  0.000  0.000  0.000  0.000  0.134
tot    0.012  0.116  0.000  0.347  0.000  0.000  0.000  0.000  0.000  0.475
 
band    11 # energy   20.07898950 # occ.  0.00000000
 
ion      s     py     pz     px    dxy    dyz    dz2    dxz  x2-y2    tot
    1  0.000  0.107  0.000  0.036  0.000  0.000  0.000  0.000  0.000  0.143
    2  0.000  0.107  0.000  0.036  0.000  0.000  0.000  0.000  0.000  0.143
    3  0.000  0.090  0.000  0.030  0.000  0.000  0.000  0.000  0.000  0.120
    4  0.000  0.090  0.000  0.030  0.000  0.000  0.000  0.000  0.000  0.120
tot    0.000  0.394  0.000  0.131  0.000  0.000  0.000  0.000  0.000  0.526
 
band    12 # energy   20.33927506 # occ.  0.00000000
 
ion      s     py     pz     px    dxy    dyz    dz2    dxz  x2-y2    tot
    1  0.000  0.000  0.184  0.000  0.000  0.000  0.000  0.000  0.000  0.184
    2  0.000  0.000  0.184  0.000  0.000  0.000  0.000  0.000  0.000  0.184
    3  0.000  0.000  0.154  0.000  0.000  0.000  0.000  0.000  0.000  0.154
    4  0.000  0.000  0.154  0.000  0.000  0.000  0.000  0.000  0.000  0.154
tot    0.000  0.000  0.677  0.000  0.000  0.000  0.000  0.000  0.000  0.677
 
band    13 # energy   20.80396845 # occ.  0.00000000
 
ion      s     py     pz     px    dxy    dyz    dz2    dxz  x2-y2    tot
    1  0.000  0.094  0.000  0.031  0.000  0.000  0.000  0.000  0.000  0.125
    2  0.000  0.094  0.000  0.031  0.000  0.000  0.000  0.000  0.000  0.125
    3  0.000  0.116  0.000  0.039  0.000  0.000  0.000  0.000  0.000  0.154
    4  0.000  0.116  0.000  0.039  0.000  0.000  0.000  0.000  0.000  0.154
tot    0.000  0.419  0.000  0.140  0.000  0.000  0.000  0.000  0.000  0.559
 
band    14 # energy   20.97630090 # occ.  0.00000000
 
ion      s     py     pz     px    dxy    dyz    dz2    dxz  x2-y2    tot
    1  0.049  0.001  0.000  0.004  0.000  0.000  0.000  0.000  0.000  0.055
    2  0.049  0.001  0.000  0.004  0.000  0.000  0.000  0.000  0.000  0.055
    3  0.049  0.002  0.000  0.006  0.000  0.000  0.000  0.000  0.000  0.057
    4  0.049  0.002  0.000  0.006  0.000  0.000  0.000  0.000  0.000  0.057
tot    0.196  0.007  0.000  0.021  0.000  0.000  0.000  0.000  0.000  0.224
 
band    15 # energy   22.80588661 # occ.  0.00000000
 
ion      s     py     pz     px    dxy    dyz    dz2    dxz  x2-y2    tot
    1  0.000  0.000  0.195  0.000  0.000  0.000  0.000  0.000  0.000  0.195
    2  0.000  0.000  0.195  0.000  0.000  0.000  0.000  0.000  0.000  0.195
    3  0.000  0.000  0.187  0.000  0.000  0.000  0.000  0.000  0.000  0.187
    4  0.000  0.000  0.187  0.000  0.000  0.000  0.000  0.000  0.000  0.187
tot    0.000  0.000  0.764  0.000  0.000  0.000  0.000  0.000  0.000  0.764
 
band    16 # energy   24.80038403 # occ.  0.00000000
 
ion      s     py     pz     px    dxy    dyz    dz2    dxz  x2-y2    tot
    1  0.143  0.010  0.000  0.030  0.000  0.000  0.000  0.000  0.000  0.183
    2  0.143  0.010  0.000  0.030  0.000  0.000  0.000  0.000  0.000  0.183
    3  0.129  0.002  0.000  0.006  0.000  0.000  0.000  0.000  0.000  0.136
    4  0.129  0.002  0.000  0.006  0.000  0.000  0.000  0.000  0.000  0.136
tot    0.544  0.024  0.000  0.071  0.000  0.000  0.000  0.000  0.000  0.639
 

 k-point     4 :    0.16666667 0.00000000 0.00000000     weight = 0.00462963

band     1 # energy  -11.65826416 # occ.  1.00000000
 
ion      s     py     pz     px    dxy    dyz    dz2    dxz  x2-y2    tot
    1  0.156  0.002  0.000  0.005  0.000  0.000  0.000  0.000  0.000  0.163
    2  0.156  0.002  0.000  0.005  0.000  0.000  0.000  0.000  0.000  0.163
    3  0.152  0.002  0.000  0.006  0.000  0.000  0.000  0.000  0.000  0.160
    4  0.152  0.002  0.000  0.006  0.000  0.000  0.000  0.000  0.000  0.160
tot    0.616  0.007  0.000  0.022  0.000  0.000  0.000  0.000  0.000  0.646
 
band     2 # energy   -8.81933154 # occ.  1.00000000
 
ion      s     py     pz     px    dxy    dyz    dz2    dxz  x2-y2    tot
    1  0.181  0.002  0.000  0.007  0.000  0.000  0.000  0.000  0.000  0.190
    2  0.181  0.002  0.000  0.007  0.000  0.000  0.000  0.000  0.000  0.190
    3  0.181  0.002  0.000  0.007  0.000  0.000  0.000  0.000  0.000  0.190
    4  0.181  0.002  0.000  0.007  0.000  0.000  0.000  0.000  0.000  0.190
tot    0.723  0.009  0.000  0.028  0.000  0.000  0.000  0.000  0.000  0.761
 
band     3 # energy   -1.42780441 # occ.  1.00000000
 
ion      s     py     pz     px    dxy    dyz    dz2    dxz  x2-y2    tot
    1  0.000  0.000  0.107  0.000  0.000  0.000  0.000  0.000  0.000  0.107
    2  0.000  0.000  0.107  0.000  0.000  0.000  0.000  0.000  0.000  0.107
    3  0.000  0.000  0.098  0.000  0.000  0.000  0.000  0.000  0.000  0.098
    4  0.000  0.000  0.098  0.000  0.000  0.000  0.000  0.000  0.000  0.098
tot    0.000  0.000  0.409  0.000  0.000  0.000  0.000  0.000  0.000  0.409
 
band     4 # energy    3.90274976 # occ.  1.00000000
 
ion      s     py     pz     px    dxy    dyz    dz2    dxz  x2-y2    tot
    1  0.028  0.045  0.000  0.135  0.000  0.000  0.000  0.000  0.000  0.208
    2  0.028  0.045  0.000  0.135  0.000  0.000  0.000  0.000  0.000  0.208
    3  0.028  0.043  0.000  0.129  0.000  0.000  0.000  0.000  0.000  0.200
    4  0.028  0.043  0.000  0.129  0.000  0.000  0.000  0.000  0.000  0.200
tot    0.111  0.176  0.000  0.528  0.000  0.000  0.000  0.000  0.000  0.815
 
band     5 # energy    4.85750561 # occ.  1.00000000
 
ion      s     py     pz     px    dxy    dyz    dz2    dxz  x2-y2    tot
    1  0.028  0.047  0.000  0.141  0.000  0.000  0.000  0.000  0.000  0.216
    2  0.028  0.047  0.000  0.141  0.000  0.000  0.000  0.000  0.000  0.216
    3  0.028  0.048  0.000  0.143  0.000  0.000  0.000  0.000  0.000  0.219
    4  0.028  0.048  0.000  0.143  0.000  0.000  0.000  0.000  0.000  0.219
tot    0.111  0.189  0.000  0.568  0.000  0.000  0.000  0.000  0.000  0.869
 
band     6 # energy    5.18862835 # occ.  1.00000000
 
ion      s     py     pz     px    dxy    dyz    dz2    dxz  x2-y2    tot
    1  0.000  0.160  0.000  0.053  0.000  0.000  0.000  0.000  0.000  0.214
    2  0.000  0.160  0.000  0.053  0.000  0.000  0.000  0.000  0.000  0.214
    3  0.000  0.155  0.000  0.052  0.000  0.000  0.000  0.000  0.000  0.207
    4  0.000  0.155  0.000  0.052  0.000  0.000  0.000  0.000  0.000  0.207
tot    0.000  0.632  0.000  0.211  0.000  0.000  0.000  0.000  0.000  0.842
 
band     7 # energy    5.89791344 # occ.  1.00000000
 
ion      s     py     pz     px    dxy    dyz    dz2    dxz  x2-y2    tot
    1  0.000  0.165  0.000  0.055  0.000  0.000  0.000  0.000  0.000  0.220
    2  0.000  0.165  0.000  0.055  0.000  0.000  0.000  0.000  0.000  0.220
    3  0.000  0.165  0.000  0.055  0.000  0.000  0.000  0.000  0.000  0.220
    4  0.000  0.165  0.000  0.055  0.000  0.000  0.000  0.000  0.000  0.220
tot    0.000  0.661  0.000  0.220  0.000  0.000  0.000  0.000  0.000  0.881
 
band     8 # energy    7.21472242 # occ.  1.00000000
 
ion      s     py     pz     px    dxy    dyz    dz2    dxz  x2-y2    tot
    1  0.000  0.000  0.162  0.000  0.000  0.000  0.000  0.000  0.000  0.162
    2  0.000  0.000  0.162  0.000  0.000  0.000  0.000  0.000  0.000  0.162
    3  0.000  0.000  0.178  0.000  0.000  0.000  0.000  0.000  0.000  0.178
    4  0.000  0.000  0.178  0.000  0.000  0.000  0.000  0.000  0.000  0.178
tot    0.000  0.000  0.680  0.000  0.000  0.000  0.000  0.000  0.000  0.680
 
band     9 # energy   18.33638701 # occ.  0.00000000
 
ion      s     py     pz     px    dxy    dyz    dz2    dxz  x2-y2    tot
    1  0.023  0.023  0.000  0.068  0.000  0.000  0.000  0.000  0.000  0.114
    2  0.023  0.023  0.000  0.068  0.000  0.000  0.000  0.000  0.000  0.114
    3  0.035  0.018  0.000  0.055  0.000  0.000  0.000  0.000  0.000  0.108
    4  0.035  0.018  0.000  0.055  0.000  0.000  0.000  0.000  0.000  0.108
tot    0.116  0.082  0.000  0.245  0.000  0.000  0.000  0.000  0.000  0.443
 
band    10 # energy   18.81808895 # occ.  0.00000000
 
ion      s     py     pz     px    dxy    dyz    dz2    dxz  x2-y2    tot
    1  0.000  0.000  0.168  0.000  0.000  0.000  0.000  0.000  0.000  0.168
    2  0.000  0.000  0.168  0.000  0.000  0.000  0.000  0.000  0.000  0.168
    3  0.000  0.000  0.139  0.000  0.000  0.000  0.000  0.000  0.000  0.139
    4  0.000  0.000  0.139  0.000  0.000  0.000  0.000  0.000  0.000  0.139