unknown system                          
            1
     2.467291    0.000000    0.000000
    -1.233646    2.136737    0.000000
     0.000000    0.000000    7.803073
   C 
   4
Direct configuration=     1
   0.00000000  0.00000000  0.25000000
   0.00000000  0.00000000  0.75000000
   0.33333300  0.66666700  0.25000000
   0.66666700  0.33333300  0.75000000
unknown system                          
            1
     2.444049    0.000000    0.000000
    -1.222025    2.116609   -0.000000
     0.000000    0.000000    7.729325
   C 
   4
Direct configuration=     2
   0.00000000  0.00000000  0.25000000
  -0.00000000  0.00000000  0.75000000
   0.33333300  0.66666700  0.25000000
   0.66666700  0.33333300  0.75000000
unknown system                          
            1
     2.374323    0.000000    0.000000
    -1.187162    2.056224   -0.000000
     0.000000    0.000000    7.508080
   C 
   4
Direct configuration=     3
   0.00000000  0.00000000  0.25000000
  -0.00000000  0.00000000  0.75000000
   0.33333300  0.66666700  0.25000000
   0.66666700  0.33333300  0.75000000
unknown system                          
            1
     2.234870    0.000000    0.000000
    -1.117436    1.935455   -0.000000
     0.000000    0.000000    7.065591
   C 
   4
Direct configuration=     4
   0.00000000  0.00000000  0.25000000
  -0.00000000  0.00000000  0.75000000
   0.33333300  0.66666700  0.25000000
   0.66666700  0.33333300  0.75000000
unknown system                          
            1
     2.260734    0.000000    0.000000
    -1.130367    1.957853   -0.000000
     0.000000    0.000000    7.147656
   C 
   4
Direct configuration=     5
   0.00000000  0.00000000  0.25000000
  -0.00000000  0.00000000  0.75000000
   0.33333300  0.66666700  0.25000000
   0.66666700  0.33333300  0.75000000
unknown system                          
            1
     2.266105   -0.000000    0.000000
    -1.133053    1.962505    0.000000
     0.000000    0.000000    6.972250
   C 
   4
Direct configuration=     6
   0.00000000  0.00000000  0.25000000
  -0.00000000  0.00000000  0.75000000
   0.33333300  0.66666700  0.25000000
   0.66666700  0.33333300  0.75000000
unknown system                          
            1
     2.282219   -0.000000    0.000000
    -1.141110    1.976460    0.000000
     0.000000    0.000000    6.446032
   C 
   4
Direct configuration=     7
   0.00000000  0.00000000  0.25000000
  -0.00000000  0.00000000  0.75000000
   0.33333300  0.66666700  0.25000000
   0.66666700  0.33333300  0.75000000
unknown system                          
            1
     2.314447   -0.000000    0.000000
    -1.157224    2.004371    0.000000
     0.000000    0.000000    5.393597
   C 
   4
Direct configuration=     8
   0.00000000  0.00000000  0.25000000
  -0.00000000 -0.00000000  0.75000000
   0.33333300  0.66666700  0.25000000
   0.66666700  0.33333300  0.75000000
unknown system                          
            1
     2.378904   -0.000000    0.000000
    -1.189453    2.060192    0.000000
     0.000000    0.000000    3.288727
   C 
   4
Direct configuration=     9
  -0.00000000  0.00000000  0.25000000
  -0.00000000 -0.00000000  0.75000000
   0.33333300  0.66666700  0.25000000
   0.66666700  0.33333300  0.75000000
unknown system                          
            1
     2.328077   -0.000000    0.000000
    -1.164039    2.016175    0.000000
     0.000000    0.000000    4.948499
   C 
   4
Direct configuration=    10
   0.00000000  0.00000000  0.25000000
  -0.00000000 -0.00000000  0.75000000
   0.33333300  0.66666700  0.25000000
   0.66666700  0.33333300  0.75000000
unknown system                          
            1
     2.340707   -0.000000    0.000000
    -1.170354    2.027112    0.000000
     0.000000    0.000000    4.536067
   C 
   4
Direct configuration=    11
   0.00000000  0.00000000  0.25000000
  -0.00000000 -0.00000000  0.75000000
   0.33333300  0.66666700  0.25000000
   0.66666700  0.33333300  0.75000000
unknown system                          
            1
     2.337861   -0.000000    0.000000
    -1.168931    2.024647    0.000000
     0.000000    0.000000    4.629022
   C 
   4
Direct configuration=    12
   0.00000000  0.00000000  0.25000000
  -0.00000000 -0.00000000  0.75000000
   0.33333300  0.66666700  0.25000000
   0.66666700  0.33333300  0.75000000
unknown system                          
            1
     2.338240   -0.000000    0.000000
    -1.169121    2.024976    0.000000
     0.000000    0.000000    4.616638
   C 
   4
Direct configuration=    13
   0.00000000  0.00000000  0.25000000
  -0.00000000 -0.00000000  0.75000000
   0.33333300  0.66666700  0.25000000
   0.66666700  0.33333300  0.75000000
unknown system                          
            1
     2.355082   -0.000000    0.000000
    -1.177542    2.039562   -0.000000
     0.000000   -0.000000    4.640691
   C 
   4
Direct configuration=    14
   0.00000000 -0.00000000  0.25000000
  -0.00000000  0.00000000  0.75000000
   0.33333300  0.66666700  0.25000000
   0.66666700  0.33333300  0.75000000
unknown system                          
            1
     2.351773   -0.000000    0.000000
    -1.175887    2.036696   -0.000000
     0.000000   -0.000000    4.635965
   C 
   4
Direct configuration=    15
   0.00000000 -0.00000000  0.25000000
  -0.00000000  0.00000000  0.75000000
   0.33333300  0.66666700  0.25000000
   0.66666700  0.33333300  0.75000000
