   32   32    1    2
  0.1028436E+02  0.4934582E-09  0.4934583E-09  0.1560615E-08  0.1500000E-16
   1.0000000000000000E-004
  CAR 
 unknown system                          
    128      4    112
 
  0.3742002E-15  0.3742002E-15  0.1262379E-14  0.6250000E-01
    1      -16.098277    -16.098278   1.000000   1.000000
    2      -16.056791    -16.056791   1.000000   1.000000
    3      -16.056791    -16.056791   1.000000   1.000000
    4      -16.014452    -16.014452   1.000000   1.000000
    5      -10.837268    -10.837268   1.000000   1.000000
    6      -10.837262    -10.837262   1.000000   1.000000
    7      -10.837244    -10.837245   1.000000   1.000000
    8      -10.822455    -10.822456   1.000000   1.000000
    9      -10.822455    -10.822456   1.000000   1.000000
   10      -10.822449    -10.822450   1.000000   1.000000
   11      -10.822449    -10.822450   1.000000   1.000000
   12      -10.822432    -10.822433   1.000000   1.000000
   13      -10.822432    -10.822433   1.000000   1.000000
   14      -10.808133    -10.808133   1.000000   1.000000
   15      -10.808127    -10.808127   1.000000   1.000000
   16      -10.808110    -10.808110   1.000000   1.000000
   17       -9.782371     -9.782372   1.000000   1.000000
   18       -9.782336     -9.782337   1.000000   1.000000
   19       -9.782332     -9.782333   1.000000   1.000000
   20       -9.771718     -9.771719   1.000000   1.000000
   21       -9.771718     -9.771719   1.000000   1.000000
   22       -9.771682     -9.771683   1.000000   1.000000
   23       -9.771682     -9.771683   1.000000   1.000000
   24       -9.771679     -9.771680   1.000000   1.000000
   25       -9.771679     -9.771680   1.000000   1.000000
   26       -9.759590     -9.759590   1.000000   1.000000
   27       -9.759553     -9.759554   1.000000   1.000000
   28       -9.759550     -9.759551   1.000000   1.000000
   29       -4.566738     -4.566738   1.000000   1.000000
   30       -4.167509     -4.167508   1.000000   1.000000
   31       -4.167509     -4.167508   1.000000   1.000000
   32       -3.718643     -3.718641   1.000000   1.000000
   33       -2.959130     -2.959130   1.000000   1.000000
   34       -2.959126     -2.959126   1.000000   1.000000
   35       -2.959105     -2.959105   1.000000   1.000000
   36       -2.953147     -2.953147   1.000000   1.000000
   37       -2.953147     -2.953147   1.000000   1.000000
   38       -2.953143     -2.953144   1.000000   1.000000
   39       -2.953143     -2.953144   1.000000   1.000000
   40       -2.953123     -2.953123   1.000000   1.000000
   41       -2.953123     -2.953123   1.000000   1.000000
   42       -2.947814     -2.947814   1.000000   1.000000
   43       -2.947810     -2.947810   1.000000   1.000000
   44       -2.947789     -2.947789   1.000000   1.000000
   45        0.418821      0.418821   1.000000   1.000000
   46        0.418879      0.418879   1.000000   1.000000
   47        0.424091      0.424091   1.000000   1.000000
   48        0.424149      0.424149   1.000000   1.000000
   49        0.424568      0.424568   1.000000   1.000000
   50        0.424568      0.424568   1.000000   1.000000
   51        0.424625      0.424625   1.000000   1.000000
   52        0.424625      0.424625   1.000000   1.000000
   53        0.944001      0.944000   1.000000   1.000000
   54        0.944005      0.944004   1.000000   1.000000
   55        0.944022      0.944021   1.000000   1.000000
   56        1.085751      1.085750   1.000000   1.000000
   57        1.085751      1.085750   1.000000   1.000000
   58        1.085755      1.085755   1.000000   1.000000
   59        1.085755      1.085755   1.000000   1.000000
   60        1.085771      1.085771   1.000000   1.000000
   61        1.085771      1.085771   1.000000   1.000000
   62        1.219058      1.219058   1.000000   1.000000
   63        1.219062      1.219063   1.000000   1.000000
   64        1.219078      1.219078   1.000000   1.000000
   65        4.989546      4.989546   0.000000   0.000000
   66        4.989576      4.989575   0.000000   0.000000
   67        4.989577      4.989576   0.000000   0.000000
   68        5.116472      5.116472   0.000000   0.000000
   69        5.116472      5.116472   0.000000   0.000000
   70        5.116503      5.116503   0.000000   0.000000
   71        5.116503      5.116503   0.000000   0.000000
   72        5.116504      5.116505   0.000000   0.000000
   73        5.116504      5.116505   0.000000   0.000000
   74        5.329478      5.329479   0.000000   0.000000
   75        5.329511      5.329512   0.000000   0.000000
   76        5.329513      5.329514   0.000000   0.000000
   77        6.845647      6.845641   0.000000   0.000000
   78        8.508705      8.508736   0.000000   0.000000
   79        8.509356      8.508866   0.000000   0.000000
   80       10.750650     10.750647   0.000000   0.000000
   81       10.803419     10.757502   0.000000   0.000000
   82       10.808617     10.791129   0.000000   0.000000
   83       10.808626     10.808615   0.000000   0.000000
   84       10.808626     10.808624   0.000000   0.000000
   85       10.808641     10.808624   0.000000   0.000000
   86       10.808641     10.808639   0.000000   0.000000
   87       10.846516     10.808639   0.000000   0.000000
   88       10.868222     10.868220   0.000000   0.000000
   89       10.868231     10.868229   0.000000   0.000000
   90       10.868247     10.868245   0.000000   0.000000
   91       11.063560     10.947878   0.000000   0.000000
   92       11.087857     11.063588   0.000000   0.000000
   93       11.775628     11.775628   0.000000   0.000000
   94       11.775693     11.775692   0.000000   0.000000
   95       11.793177     11.793177   0.000000   0.000000
   96       11.793241     11.793241   0.000000   0.000000
   97       11.794296     11.794296   0.000000   0.000000
   98       11.794296     11.794296   0.000000   0.000000
   99       11.794360     11.794360   0.000000   0.000000
  100       11.794360     11.794360   0.000000   0.000000
  101       14.215317     14.215355   0.000000   0.000000
  102       14.215735     14.215534   0.000000   0.000000
  103       14.216851     14.216542   0.000000   0.000000
  104       14.356615     14.356516   0.000000   0.000000
  105       14.357492     14.356768   0.000000   0.000000
  106       14.365818     14.363143   0.000000   0.000000
  107       14.853792     14.853790   0.000000   0.000000
  108       14.891751     14.891749   0.000000   0.000000
  109       14.898068     14.898065   0.000000   0.000000
  110       14.898070     14.898066   0.000000   0.000000
  111       15.241245     15.239460   0.000000   0.000000
  112       15.243464     15.242210   0.000000   0.000000
 
  0.2500000E+00  0.3354118E-15  0.1262379E-14  0.3750000E+00
    1      -15.728693    -15.728693   1.000000   1.000000
    2      -15.688283    -15.688284   1.000000   1.000000
    3      -15.688283    -15.688284   1.000000   1.000000
    4      -15.647064    -15.647065   1.000000   1.000000
    5      -12.839377    -12.839377   1.000000   1.000000
    6      -12.807231    -12.807232   1.000000   1.000000
    7      -12.807231    -12.807232   1.000000   1.000000
    8      -12.774759    -12.774760   1.000000   1.000000
    9      -11.477874    -11.477875   1.000000   1.000000
   10      -11.477870    -11.477870   1.000000   1.000000
   11      -11.450352    -11.450353   1.000000   1.000000
   12      -11.450352    -11.450353   1.000000   1.000000
   13      -11.450348    -11.450348   1.000000   1.000000
   14      -11.450348    -11.450348   1.000000   1.000000
   15      -11.422503    -11.422503   1.000000   1.000000
   16      -11.422498    -11.422498   1.000000   1.000000
   17       -8.571768     -8.571769   1.000000   1.000000
   18       -8.571747     -8.571748   1.000000   1.000000
   19       -8.551713     -8.551713   1.000000   1.000000
   20       -8.551713     -8.551713   1.000000   1.000000
   21       -8.551692     -8.551693   1.000000   1.000000
   22       -8.551692     -8.551693   1.000000   1.000000
   23       -8.531235     -8.531236   1.000000   1.000000
   24       -8.531215     -8.531216   1.000000   1.000000
   25       -7.265227     -7.265228   1.000000   1.000000
   26       -7.246851     -7.246852   1.000000   1.000000
   27       -7.246851     -7.246852   1.000000   1.000000
   28       -7.228218     -7.228219   1.000000   1.000000
   29       -4.120155     -4.120155   1.000000   1.000000
   30       -3.976282     -3.976282   1.000000   1.000000
   31       -3.976263     -3.976263   1.000000   1.000000
   32       -3.967149     -3.967149   1.000000   1.000000
   33       -3.967149     -3.967149   1.000000   1.000000
   34       -3.967130     -3.967130   1.000000   1.000000
   35       -3.967130     -3.967130   1.000000   1.000000
   36       -3.957953     -3.957954   1.000000   1.000000
   37       -3.957934     -3.957935   1.000000   1.000000
   38       -3.729297     -3.729297   1.000000   1.000000
   39       -3.729297     -3.729297   1.000000   1.000000
   40       -3.287994     -3.287993   1.000000   1.000000
   41       -2.597755     -2.597756   1.000000   1.000000
   42       -2.590964     -2.590964   1.000000   1.000000
   43       -2.590964     -2.590964   1.000000   1.000000
   44       -2.586366     -2.586366   1.000000   1.000000
   45       -0.966654     -0.966654   1.000000   1.000000
   46       -0.961807     -0.961807   1.000000   1.000000
   47       -0.961807     -0.961807   1.000000   1.000000
   48       -0.955853     -0.955853   1.000000   1.000000
   49       -0.776480     -0.776480   1.000000   1.000000
   50       -0.465037     -0.465037   1.000000   1.000000
   51       -0.465037     -0.465037   1.000000   1.000000
   52       -0.284674     -0.284674   1.000000   1.000000
   53       -0.279064     -0.279064   1.000000   1.000000
   54       -0.279064     -0.279064   1.000000   1.000000
   55       -0.275452     -0.275452   1.000000   1.000000
   56       -0.122739     -0.122738   1.000000   1.000000
   57        0.639824      0.639824   1.000000   1.000000
   58        0.639836      0.639835   1.000000   1.000000
   59        0.881645      0.881645   1.000000   1.000000
   60        0.881645      0.881645   1.000000   1.000000
   61        0.881657      0.881657   1.000000   1.000000
   62        0.881657      0.881657   1.000000   1.000000
   63        1.135808      1.135808   1.000000   1.000000
   64        1.135821      1.135821   1.000000   1.000000
   65        5.522865      5.522864   0.000000   0.000000
   66        5.522888      5.522888   0.000000   0.000000
   67        5.673463      5.673462   0.000000   0.000000
   68        5.673463      5.673462   0.000000   0.000000
   69        5.673485      5.673485   0.000000   0.000000
   70        5.673485      5.673485   0.000000   0.000000
   71        5.867219      5.867219   0.000000   0.000000
   72        5.867240      5.867240   0.000000   0.000000
   73        7.050883      7.050883   0.000000   0.000000
   74        7.227481      7.227481   0.000000   0.000000
   75        7.227481      7.227481   0.000000   0.000000
   76        7.318693      7.318682   0.000000   0.000000
   77        7.450542      7.450542   0.000000   0.000000
   78        8.958612      8.958554   0.000000   0.000000
   79        8.959322      8.959031   0.000000   0.000000
   80       10.868658     10.868653   0.000000   0.000000
   81       10.979448     10.979446   0.000000   0.000000
   82       11.236821     11.256139   0.000000   0.000000
   83       11.256140     11.480928   0.000000   0.000000
   84       11.295965     11.596371   0.000000   0.000000
   85       11.480936     11.821642   0.000000   0.000000
   86       11.821643     11.857747   0.000000   0.000000
   87       11.857747     11.857751   0.000000   0.000000
   88       11.857753     11.872912   0.000000   0.000000
   89       11.872913     11.921781   0.000000   0.000000
   90       12.310557     12.310555   0.000000   0.000000
   91       12.310572     12.310570   0.000000   0.000000
   92       12.387843     12.387841   0.000000   0.000000
   93       12.387843     12.387841   0.000000   0.000000
   94       12.387858     12.387857   0.000000   0.000000
   95       12.387858     12.387857   0.000000   0.000000
   96       12.452950     12.452948   0.000000   0.000000
   97       12.452965     12.452963   0.000000   0.000000
   98       12.606661     12.611034   0.000000   0.000000
   99       12.955524     12.955526   0.000000   0.000000
  100       12.955593     12.955535   0.000000   0.000000
  101       13.282527     13.282526   0.000000   0.000000
  102       13.615270     13.615268   0.000000   0.000000
  103       13.661129     13.661126   0.000000   0.000000
  104       13.661132     13.661127   0.000000   0.000000
  105       13.701147     13.701145   0.000000   0.000000
  106       14.052975     14.052980   0.000000   0.000000
  107       14.053072     14.053038   0.000000   0.000000
  108       14.053332     14.053142   0.000000   0.000000
  109       14.053649     14.053510   0.000000   0.000000
  110       15.349074     16.198296   0.000000   0.000000
  111       16.197382     16.198527   0.000000   0.000000
  112       16.200657     16.573294   0.000000   0.000000
 
  0.5000000E+00  0.3332530E-15  0.1262379E-14  0.1875000E+00
    1      -14.629634    -14.629634   1.000000   1.000000
    2      -14.629634    -14.629634   1.000000   1.000000
    3      -14.592416    -14.592417   1.000000   1.000000
    4      -14.592416    -14.592417   1.000000   1.000000
    5      -14.592416    -14.592417   1.000000   1.000000
    6      -14.592416    -14.592417   1.000000   1.000000
    7      -14.554482    -14.554483   1.000000   1.000000
    8      -14.554482    -14.554483   1.000000   1.000000
    9      -11.805535    -11.805535   1.000000   1.000000
   10      -11.805535    -11.805535   1.000000   1.000000
   11      -11.776408    -11.776409   1.000000   1.000000
   12      -11.776408    -11.776409   1.000000   1.000000
   13      -11.776408    -11.776409   1.000000   1.000000
   14      -11.776408    -11.776409   1.000000   1.000000
   15      -11.747103    -11.747103   1.000000   1.000000
   16      -11.747103    -11.747103   1.000000   1.000000
   17       -7.083843     -7.083844   1.000000   1.000000
   18       -7.083843     -7.083844   1.000000   1.000000
   19       -7.074311     -7.074311   1.000000   1.000000
   20       -7.074311     -7.074311   1.000000   1.000000
   21       -7.074311     -7.074311   1.000000   1.000000
   22       -7.074311     -7.074311   1.000000   1.000000
   23       -7.065888     -7.065889   1.000000   1.000000
   24       -7.065888     -7.065889   1.000000   1.000000
   25       -5.496103     -5.496104   1.000000   1.000000
   26       -5.496103     -5.496104   1.000000   1.000000
   27       -5.488551     -5.488552   1.000000   1.000000
   28       -5.488551     -5.488552   1.000000   1.000000
   29       -5.488551     -5.488552   1.000000   1.000000
   30       -5.488551     -5.488552   1.000000   1.000000
   31       -5.482273     -5.482274   1.000000   1.000000
   32       -5.482273     -5.482274   1.000000   1.000000
   33       -3.983162     -3.983162   1.000000   1.000000
   34       -3.983162     -3.983162   1.000000   1.000000
   35       -3.970817     -3.970818   1.000000   1.000000
   36       -3.970817     -3.970818   1.000000   1.000000
   37       -3.970817     -3.970818   1.000000   1.000000
   38       -3.970817     -3.970818   1.000000   1.000000
   39       -3.960242     -3.960243   1.000000   1.000000
   40       -3.960242     -3.960243   1.000000   1.000000
   41       -2.811194     -2.811193   1.000000   1.000000
   42       -2.811194     -2.811193   1.000000   1.000000
   43       -2.442448     -2.442448   1.000000   1.000000
   44       -2.442448     -2.442448   1.000000   1.000000
   45       -2.442448     -2.442448   1.000000   1.000000
   46       -2.442448     -2.442448   1.000000   1.000000
   47       -2.030173     -2.030172   1.000000   1.000000
   48       -2.030173     -2.030172   1.000000   1.000000
   49       -1.593735     -1.593736   1.000000   1.000000
   50       -1.593735     -1.593736   1.000000   1.000000
   51       -1.586261     -1.586261   1.000000   1.000000
   52       -1.586261     -1.586261   1.000000   1.000000
   53       -1.586261     -1.586261   1.000000   1.000000
   54       -1.586261     -1.586261   1.000000   1.000000
   55       -1.583131     -1.583131   1.000000   1.000000
   56       -1.583131     -1.583131   1.000000   1.000000
   57        0.421993      0.421993   1.000000   1.000000
   58        0.421993      0.421993   1.000000   1.000000
   59        0.709901      0.709901   1.000000   1.000000
   60        0.709901      0.709901   1.000000   1.000000
   61        0.709901      0.709901   1.000000   1.000000
   62        0.709901      0.709901   1.000000   1.000000
   63        1.018447      1.018447   1.000000   1.000000
   64        1.018447      1.018447   1.000000   1.000000
   65        6.148303      6.148302   0.000000   0.000000
   66        6.148303      6.148302   0.000000   0.000000
   67        6.263748      6.263747   0.000000   0.000000
   68        6.263748      6.263747   0.000000   0.000000
   69        6.263748      6.263747   0.000000   0.000000
   70        6.263748      6.263747   0.000000   0.000000
   71        6.371496      6.371495   0.000000   0.000000
   72        6.371496      6.371495   0.000000   0.000000
   73        8.734715      8.734710   0.000000   0.000000
   74        8.734735      8.734710   0.000000   0.000000
   75       10.188179     10.188174   0.000000   0.000000
   76       10.188179     10.188175   0.000000   0.000000
   77       10.188180     10.188176   0.000000   0.000000
   78       10.188182     10.188180   0.000000   0.000000
   79       10.565623     10.565621   0.000000   0.000000
   80       10.565623     10.565621   0.000000   0.000000
   81       10.807097     10.807095   0.000000   0.000000
   82       10.807097     10.807095   0.000000   0.000000
   83       10.807098     10.807095   0.000000   0.000000
   84       10.807098     10.807095   0.000000   0.000000
   85       11.275416     10.978611   0.000000   0.000000
   86       11.437088     11.437078   0.000000   0.000000
   87       11.437089     11.437088   0.000000   0.000000
   88       11.528700     11.528696   0.000000   0.000000
   89       11.528700     11.528698   0.000000   0.000000
   90       11.528700     11.528699   0.000000   0.000000
   91       11.528700     11.528699   0.000000   0.000000
   92       11.535732     11.531743   0.000000   0.000000
   93       11.535768     11.535737   0.000000   0.000000
   94       12.445700     11.537808   0.000000   0.000000
   95       12.445706     12.445701   0.000000   0.000000
   96       12.533350     12.445702   0.000000   0.000000
   97       12.939639     13.087640   0.000000   0.000000
   98       13.351592     13.351743   0.000000   0.000000
   99       13.351760     13.351749   0.000000   0.000000
  100       13.352999     13.351885   0.000000   0.000000
  101       14.645452     13.353376   0.000000   0.000000
  102       14.753492     14.393494   0.000000   0.000000
  103       15.350422     14.428213   0.000000   0.000000
  104       15.647285     15.646167   0.000000   0.000000
  105       15.655830     15.646665   0.000000   0.000000
  106       15.933987     15.927108   0.000000   0.000000
  107       15.938474     15.934556   0.000000   0.000000
  108       15.943179     15.936444   0.000000   0.000000
  109       15.946423     15.942647   0.000000   0.000000
  110       16.112802     16.014147   0.000000   0.000000
  111       16.124031     16.121934   0.000000   0.000000
  112       16.137874     16.147641   0.000000   0.000000
 
  0.2500000E+00  0.2500000E+00  0.1262379E-14  0.3750000E+00
    1      -14.994385    -14.994386   1.000000   1.000000
    2      -14.956138    -14.956139   1.000000   1.000000
    3      -14.956138    -14.956139   1.000000   1.000000
    4      -14.917094    -14.917095   1.000000   1.000000
    5      -13.548674    -13.548675   1.000000   1.000000
    6      -13.548673    -13.548673   1.000000   1.000000
    7      -13.514585    -13.514585   1.000000   1.000000
    8      -13.514585    -13.514585   1.000000   1.000000
    9      -13.514583    -13.514584   1.000000   1.000000
   10      -13.514583    -13.514584   1.000000   1.000000
   11      -13.479845    -13.479846   1.000000   1.000000
   12      -13.479844    -13.479845   1.000000   1.000000
   13       -9.887755     -9.887756   1.000000   1.000000
   14       -9.874390     -9.874390   1.000000   1.000000
   15       -9.874390     -9.874390   1.000000   1.000000
   16       -9.861776     -9.861777   1.000000   1.000000
   17       -8.996023     -8.996023   1.000000   1.000000
   18       -8.990734     -8.990735   1.000000   1.000000
   19       -8.990734     -8.990735   1.000000   1.000000
   20       -8.984049     -8.984050   1.000000   1.000000
   21       -6.284404     -6.284405   1.000000   1.000000
   22       -6.272439     -6.272440   1.000000   1.000000
   23       -6.272439     -6.272440   1.000000   1.000000
   24       -6.260183     -6.260183   1.000000   1.000000
   25       -5.569318     -5.569319   1.000000   1.000000
   26       -5.569318     -5.569318   1.000000   1.000000
   27       -5.556474     -5.556474   1.000000   1.000000
   28       -5.556474     -5.556474   1.000000   1.000000
   29       -5.556473     -5.556474   1.000000   1.000000
   30       -5.556473     -5.556474   1.000000   1.000000
   31       -5.543203     -5.543204   1.000000   1.000000
   32       -5.543203     -5.543203   1.000000   1.000000
   33       -3.240489     -3.240489   1.000000   1.000000
   34       -3.207234     -3.207234   1.000000   1.000000
   35       -3.207234     -3.207234   1.000000   1.000000
   36       -3.200414     -3.200414   1.000000   1.000000
   37       -3.200414     -3.200414   1.000000   1.000000
   38       -3.200413     -3.200414   1.000000   1.000000
   39       -3.200413     -3.200414   1.000000   1.000000
   40       -3.192291     -3.192291   1.000000   1.000000
   41       -3.192291     -3.192291   1.000000   1.000000
   42       -2.864905     -2.864904   1.000000   1.000000
   43       -2.864905     -2.864904   1.000000   1.000000
   44       -2.772551     -2.772551   1.000000   1.000000
   45       -2.768224     -2.768224   1.000000   1.000000
   46       -2.768224     -2.768224   1.000000   1.000000
   47       -2.763273     -2.763273   1.000000   1.000000
   48       -2.441724     -2.441723   1.000000   1.000000
   49       -1.685742     -1.685742   1.000000   1.000000
   50       -1.684093     -1.684093   1.000000   1.000000
   51       -1.684093     -1.684093   1.000000   1.000000
   52       -1.679531     -1.679531   1.000000   1.000000
   53       -1.547820     -1.547820   1.000000   1.000000
   54       -1.547818     -1.547818   1.000000   1.000000
   55       -1.207261     -1.207261   1.000000   1.000000
   56       -1.207261     -1.207261   1.000000   1.000000
   57       -1.207259     -1.207259   1.000000   1.000000
   58       -1.207259     -1.207259   1.000000   1.000000
   59       -0.828389     -0.828389   1.000000   1.000000
   60       -0.828388     -0.828387   1.000000   1.000000
   61        2.281668      2.281667   1.000000   1.000000
   62        2.422987      2.422987   1.000000   1.000000
   63        2.422987      2.422987   1.000000   1.000000
   64        2.543186      2.543186   1.000000   1.000000
   65        4.393393      4.393393   0.000000   0.000000
   66        4.393393      4.393393   0.000000   0.000000
   67        4.400762      4.400762   0.000000   0.000000
   68        4.422955      4.422954   0.000000   0.000000
   69        8.267108      8.267063   0.000000   0.000000
   70        8.524694      8.524693   0.000000   0.000000
   71        8.524695      8.524693   0.000000   0.000000
   72        8.641705      8.641704   0.000000   0.000000
   73        8.641705      8.641704   0.000000   0.000000
   74        8.641705      8.641704   0.000000   0.000000
   75        8.641705      8.641704   0.000000   0.000000
   76        8.774284      8.774284   0.000000   0.000000
   77        8.774285      8.774284   0.000000   0.000000
   78        9.854474      9.854456   0.000000   0.000000
   79        9.854479      9.854467   0.000000   0.000000
   80       10.149210     10.149180   0.000000   0.000000
   81       10.150699     10.149243   0.000000   0.000000
   82       11.600272     11.600176   0.000000   0.000000
   83       11.600287     11.600178   0.000000   0.000000
   84       11.600348     11.600184   0.000000   0.000000
   85       11.600350     11.600192   0.000000   0.000000
   86       11.866704     11.840181   0.000000   0.000000
   87       12.038831     12.138642   0.000000   0.000000
   88       12.285576     12.234687   0.000000   0.000000
   89       12.621473     12.621472   0.000000   0.000000
   90       12.671729     12.671718   0.000000   0.000000
   91       12.671757     12.671755   0.000000   0.000000
   92       12.689901     12.689769   0.000000   0.000000
   93       12.690076     12.689888   0.000000   0.000000
   94       12.707146     12.705542   0.000000   0.000000
   95       12.776680     12.776348   0.000000   0.000000
   96       12.776685     12.776663   0.000000   0.000000
   97       12.776692     12.786596   0.000000   0.000000
   98       12.776703     12.814226   0.000000   0.000000
   99       12.814055     12.834326   0.000000   0.000000
  100       12.820777     13.963157   0.000000   0.000000
  101       13.746579     14.024125   0.000000   0.000000
  102       14.024064     14.024458   0.000000   0.000000
  103       14.024197     14.315874   0.000000   0.000000
  104       14.517657     15.046555   0.000000   0.000000
  105       15.014708     15.138080   0.000000   0.000000
  106       15.136146     15.357798   0.000000   0.000000
  107       15.161862     15.359378   0.000000   0.000000
  108       15.358143     15.660744   0.000000   0.000000
  109       15.358528     15.661470   0.000000   0.000000
  110       15.661056     15.810855   0.000000   0.000000
  111       15.662206     15.955593   0.000000   0.000000
  112       15.920738     16.516275   0.000000   0.000000
