  32   32
1 1
    62.872202870899990    -0.000014653420000     0.000000000000000
    -0.000014653420000    62.872221367839998     0.000000000000000
     0.000000000000000     0.000000000000000    14.405886742320000
1 2
    -9.150204645919999    -0.000001080990000    -0.000000000000000
    -0.000001080990000     4.436641196499999    -0.000000000000000
    -0.000000000000000    -0.000000000000000     0.786364013520000
1 3
     1.039926072540000     5.883278466199999     0.000000000000000
     5.883278466199999    -5.753495287240000    -0.000000000000000
     0.000000000000000    -0.000000000000000     0.786364013520000
1 4
     1.039931477490000    -5.883275823779999    -0.000000000000000
    -5.883275823779999    -5.753495287240000     0.000000000000000
    -0.000000000000000     0.000000000000000     0.786364013520000
1 5
    -0.008001728200000     0.000000000000000    -0.000000000000000
     0.000000000000000    -0.008001728200000    -0.000000000000000
    -0.000000000000000    -0.000000000000000     0.000766542020000
1 6
    -0.009972252860000     0.000000000000000    -0.000000000000000
     0.000000000000000    -0.001136480820000    -0.000000000000000
    -0.000000000000000    -0.000000000000000     0.000027745410000
1 7
    -0.003345423830000     0.003825983940000     0.000000000000000
     0.003825983940000    -0.007763309850000    -0.000000000000000
     0.000000000000000    -0.000000000000000     0.000027745410000
1 8
    -0.003345423830000    -0.003825983940000     0.000000000000000
    -0.003825983940000    -0.007763309850000     0.000000000000000
     0.000000000000000     0.000000000000000     0.000027745410000
1 9
     0.009498418910000    -0.000000000000000    -0.000000000000000
    -0.000000000000000     0.009498418910000     0.000000000000000
    -0.000000000000000     0.000000000000000    -0.006194553140000
1 10
    -0.013573631100000    -0.000000000000000     0.000000000000000
    -0.000000000000000     0.001743036320000    -0.000886652020000
     0.000000000000000    -0.000886652020000     0.003763887070000
1 11
    -0.002086190590000     0.006632354090000     0.000767863230000
     0.006632354090000    -0.009744524300000     0.000443326010000
     0.000767863230000     0.000443326010000     0.003763887070000
1 12
    -0.002086190590000    -0.006632354090000    -0.000767863230000
    -0.006632354090000    -0.009744524300000     0.000443326010000
    -0.000767863230000     0.000443326010000     0.003763887070000
1 13
     0.009498418910000    -0.000000000000000     0.000000000000000
    -0.000000000000000     0.009498418910000    -0.000000000000000
     0.000000000000000    -0.000000000000000    -0.006194553140000
1 14
    -0.013573631100000    -0.000000000000000    -0.000000000000000
    -0.000000000000000     0.001743036320000     0.000886652020000
    -0.000000000000000     0.000886652020000     0.003763887070000
1 15
    -0.002086190590000     0.006632354090000    -0.000767863230000
     0.006632354090000    -0.009744524300000    -0.000443326010000
    -0.000767863230000    -0.000443326010000     0.003763887070000
1 16
    -0.002086190590000    -0.006632354090000     0.000767863230000
    -0.006632354090000    -0.009744524300000    -0.000443326010000
     0.000767863230000    -0.000443326010000     0.003763887070000
1 17
    -9.255255254120000     0.000006365830000     0.000000000000000
     0.000006365830000   -26.952650969750000     0.000000000000000
    -0.000000000000000     0.000000000000000    -5.165824202100000
1 18
    -1.355543563610000     0.000000360330000    -0.000000000000000
     0.000000360330000    -1.355544044050000     0.000000000000000
     0.000000000000000    -0.000000000000000    -1.258987254720000
1 19
   -22.528299668669998     7.663198044889999    -0.000000000000000
     7.663198044889999   -13.679606194869999    -0.000000000000000
    -0.000000000000000    -0.000000000000000    -5.165824202100000
1 20
   -22.528292462069999    -7.663191679059999    -0.000000000000000
    -7.663191679059999   -13.679606194869999     0.000000000000000
     0.000000000000000     0.000000000000000    -5.165824202100000
1 21
    -0.009043562340000    -0.000000000000000     0.000000000000000
    -0.000000000000000     0.002439193880000     0.000000000000000
    -0.000000000000000     0.000000000000000    -0.000493411880000
1 22
    -0.003280564430000     0.000000000000000    -0.000000000000000
     0.000000000000000    -0.003280564430000    -0.000000000000000
     0.000000000000000    -0.000000000000000    -0.000663367530000
1 23
    -0.000431435120000    -0.004972193670000     0.000000000000000
    -0.004972193670000    -0.006172813230000    -0.000000000000000
    -0.000000000000000    -0.000000000000000    -0.000493411880000
1 24
    -0.000431435120000     0.004972193670000     0.000000000000000
     0.004972193670000    -0.006172813230000     0.000000000000000
     0.000000000000000     0.000000000000000    -0.000493411880000
1 25
    -0.010559710870000    -0.005976073050000    -0.001233289480000
    -0.005976073050000    -0.003659151150000    -0.000712012080000
    -0.001468584970000    -0.000847856490000    -0.006741774300000
1 26
    -0.010559710870000     0.005976073050000     0.001233289480000
     0.005976073050000    -0.003659151150000    -0.000712012080000
     0.001468584970000    -0.000847856490000    -0.006741774300000
1 27
    -0.021169507610000     0.000000000000000     0.000000000000000
     0.000000000000000    -0.021169507610000     0.000000000000000
    -0.000000000000000    -0.000000000000000     0.008198588490000
1 28
    -0.000208871290000     0.000000000000000    -0.000000000000000
     0.000000000000000    -0.014009990730000     0.001424144270000
    -0.000000000000000     0.001695712980000    -0.006741774300000
1 29
    -0.010559710870000    -0.005976073050000     0.001233289480000
    -0.005976073050000    -0.003659151150000     0.000712012080000
     0.001468584970000     0.000847856490000    -0.006741774300000
1 30
    -0.010559710870000     0.005976073050000    -0.001233289480000
     0.005976073050000    -0.003659151150000     0.000712012080000
    -0.001468584970000     0.000847856490000    -0.006741774300000
1 31
    -0.021169507610000     0.000000000000000    -0.000000000000000
     0.000000000000000    -0.021169507610000    -0.000000000000000
     0.000000000000000     0.000000000000000     0.008198588490000
1 32
    -0.000208871290000     0.000000000000000     0.000000000000000
     0.000000000000000    -0.014009990730000    -0.001424144270000
     0.000000000000000    -0.001695712980000    -0.006741774300000
2 1
    -9.150204645919999    -0.000001080990000    -0.000000000000000
    -0.000001080990000     4.436641196499999    -0.000000000000000
    -0.000000000000000    -0.000000000000000     0.786364013520000
2 2
    62.872202870899990    -0.000014653420000     0.000000000000000
    -0.000014653420000    62.872221367839998     0.000000000000000
     0.000000000000000     0.000000000000000    14.405886742320000
2 3
     1.039931477490000    -5.883275823779999    -0.000000000000000
    -5.883275823779999    -5.753495287240000     0.000000000000000
    -0.000000000000000     0.000000000000000     0.786364013520000
2 4
     1.039926072540000     5.883278466199999     0.000000000000000
     5.883278466199999    -5.753495287240000    -0.000000000000000
     0.000000000000000    -0.000000000000000     0.786364013520000
2 5
    -0.009972252860000     0.000000000000000    -0.000000000000000
     0.000000000000000    -0.001136480820000    -0.000000000000000
    -0.000000000000000    -0.000000000000000     0.000027745410000
2 6
    -0.008001728200000     0.000000000000000    -0.000000000000000
     0.000000000000000    -0.008001728200000    -0.000000000000000
    -0.000000000000000    -0.000000000000000     0.000766542020000
2 7
    -0.003345423830000    -0.003825983940000     0.000000000000000
    -0.003825983940000    -0.007763309850000     0.000000000000000
     0.000000000000000     0.000000000000000     0.000027745410000
2 8
    -0.003345423830000     0.003825983940000     0.000000000000000
     0.003825983940000    -0.007763309850000    -0.000000000000000
     0.000000000000000    -0.000000000000000     0.000027745410000
2 9
    -0.013573631100000    -0.000000000000000     0.000000000000000
    -0.000000000000000     0.001743036320000    -0.000886652020000
     0.000000000000000    -0.000886652020000     0.003763887070000
2 10
     0.009498418910000    -0.000000000000000    -0.000000000000000
    -0.000000000000000     0.009498418910000     0.000000000000000
    -0.000000000000000     0.000000000000000    -0.006194553140000
2 11
    -0.002086190590000    -0.006632354090000    -0.000767863230000
    -0.006632354090000    -0.009744524300000     0.000443326010000
    -0.000767863230000     0.000443326010000     0.003763887070000
2 12
    -0.002086190590000     0.006632354090000     0.000767863230000
     0.006632354090000    -0.009744524300000     0.000443326010000
     0.000767863230000     0.000443326010000     0.003763887070000
2 13
    -0.013573631100000    -0.000000000000000    -0.000000000000000
    -0.000000000000000     0.001743036320000     0.000886652020000
    -0.000000000000000     0.000886652020000     0.003763887070000
2 14
     0.009498418910000    -0.000000000000000     0.000000000000000
    -0.000000000000000     0.009498418910000    -0.000000000000000
     0.000000000000000    -0.000000000000000    -0.006194553140000
2 15
    -0.002086190590000    -0.006632354090000     0.000767863230000
    -0.006632354090000    -0.009744524300000    -0.000443326010000
     0.000767863230000    -0.000443326010000     0.003763887070000
2 16
    -0.002086190590000     0.006632354090000    -0.000767863230000
     0.006632354090000    -0.009744524300000    -0.000443326010000
    -0.000767863230000    -0.000443326010000     0.003763887070000
2 17
    -1.355543563610000     0.000000360330000    -0.000000000000000
     0.000000360330000    -1.355544044050000     0.000000000000000
     0.000000000000000    -0.000000000000000    -1.258987254720000
2 18
    -9.255255254120000     0.000006365830000     0.000000000000000
     0.000006365830000   -26.952650969750000     0.000000000000000
    -0.000000000000000     0.000000000000000    -5.165824202100000
2 19
   -22.528292462069999    -7.663191679059999    -0.000000000000000
    -7.663191679059999   -13.679606194869999     0.000000000000000
     0.000000000000000     0.000000000000000    -5.165824202100000
2 20
   -22.528299668669998     7.663198044889999    -0.000000000000000
     7.663198044889999   -13.679606194869999    -0.000000000000000
    -0.000000000000000    -0.000000000000000    -5.165824202100000
2 21
    -0.003280564430000     0.000000000000000    -0.000000000000000
     0.000000000000000    -0.003280564430000    -0.000000000000000
     0.000000000000000    -0.000000000000000    -0.000663367530000
2 22
    -0.009043562340000    -0.000000000000000     0.000000000000000
    -0.000000000000000     0.002439193880000     0.000000000000000
    -0.000000000000000     0.000000000000000    -0.000493411880000
2 23
    -0.000431435120000     0.004972193670000     0.000000000000000
     0.004972193670000    -0.006172813230000     0.000000000000000
     0.000000000000000     0.000000000000000    -0.000493411880000
2 24
    -0.000431435120000    -0.004972193670000     0.000000000000000
    -0.004972193670000    -0.006172813230000    -0.000000000000000
    -0.000000000000000    -0.000000000000000    -0.000493411880000
2 25
    -0.010559710870000     0.005976073050000     0.001233289480000
     0.005976073050000    -0.003659151150000    -0.000712012080000
     0.001468584970000    -0.000847856490000    -0.006741774300000
2 26
    -0.010559710870000    -0.005976073050000    -0.001233289480000
    -0.005976073050000    -0.003659151150000    -0.000712012080000
    -0.001468584970000    -0.000847856490000    -0.006741774300000
2 27
    -0.000208871290000     0.000000000000000    -0.000000000000000
     0.000000000000000    -0.014009990730000     0.001424144270000
    -0.000000000000000     0.001695712980000    -0.006741774300000
2 28
    -0.021169507610000     0.000000000000000     0.000000000000000
     0.000000000000000    -0.021169507610000     0.000000000000000
    -0.000000000000000    -0.000000000000000     0.008198588490000
2 29
    -0.010559710870000     0.005976073050000    -0.001233289480000
     0.005976073050000    -0.003659151150000     0.000712012080000
    -0.001468584970000     0.000847856490000    -0.006741774300000
2 30
    -0.010559710870000    -0.005976073050000     0.001233289480000
    -0.005976073050000    -0.003659151150000     0.000712012080000
     0.001468584970000     0.000847856490000    -0.006741774300000
2 31
    -0.000208871290000     0.000000000000000     0.000000000000000
     0.000000000000000    -0.014009990730000    -0.001424144270000
     0.000000000000000    -0.001695712980000    -0.006741774300000
2 32
    -0.021169507610000     0.000000000000000    -0.000000000000000
     0.000000000000000    -0.021169507610000    -0.000000000000000
     0.000000000000000     0.000000000000000     0.008198588490000
3 1
     1.039926072540000     5.883278466199999     0.000000000000000
     5.883278466199999    -5.753495287240000    -0.000000000000000
     0.000000000000000    -0.000000000000000     0.786364013520000
3 2
     1.039931477490000    -5.883275823779999    -0.000000000000000
    -5.883275823779999    -5.753495287240000     0.000000000000000
    -0.000000000000000     0.000000000000000     0.786364013520000
3 3
    62.872202870899990    -0.000014653420000     0.000000000000000
    -0.000014653420000    62.872221367839998     0.000000000000000
     0.000000000000000     0.000000000000000    14.405886742320000
3 4
    -9.150204645919999    -0.000001080990000    -0.000000000000000
    -0.000001080990000     4.436641196499999    -0.000000000000000
    -0.000000000000000    -0.000000000000000     0.786364013520000
3 5
    -0.003345423830000     0.003825983940000     0.000000000000000
     0.003825983940000    -0.007763309850000    -0.000000000000000
     0.000000000000000    -0.000000000000000     0.000027745410000
3 6
    -0.003345423830000    -0.003825983940000     0.000000000000000
    -0.003825983940000    -0.007763309850000     0.000000000000000
     0.000000000000000     0.000000000000000     0.000027745410000
3 7
    -0.008001728200000     0.000000000000000    -0.000000000000000
     0.000000000000000    -0.008001728200000    -0.000000000000000
    -0.000000000000000    -0.000000000000000     0.000766542020000
3 8
    -0.009972252860000     0.000000000000000    -0.000000000000000
     0.000000000000000    -0.001136480820000    -0.000000000000000
    -0.000000000000000    -0.000000000000000     0.000027745410000
3 9
    -0.002086190590000     0.006632354090000     0.000767863230000
     0.006632354090000    -0.009744524300000     0.000443326010000
     0.000767863230000     0.000443326010000     0.003763887070000
3 10
    -0.002086190590000    -0.006632354090000    -0.000767863230000
    -0.006632354090000    -0.009744524300000     0.000443326010000
    -0.000767863230000     0.000443326010000     0.003763887070000
3 11
     0.009498418910000    -0.000000000000000    -0.000000000000000
    -0.000000000000000     0.009498418910000     0.000000000000000
    -0.000000000000000     0.000000000000000    -0.006194553140000
3 12
    -0.013573631100000    -0.000000000000000     0.000000000000000
    -0.000000000000000     0.001743036320000    -0.000886652020000
     0.000000000000000    -0.000886652020000     0.003763887070000
3 13
    -0.002086190590000     0.006632354090000    -0.000767863230000
     0.006632354090000    -0.009744524300000    -0.000443326010000
    -0.000767863230000    -0.000443326010000     0.003763887070000
3 14
    -0.002086190590000    -0.006632354090000     0.000767863230000
    -0.006632354090000    -0.009744524300000    -0.000443326010000
     0.000767863230000    -0.000443326010000     0.003763887070000
3 15
     0.009498418910000    -0.000000000000000     0.000000000000000
    -0.000000000000000     0.009498418910000    -0.000000000000000
     0.000000000000000    -0.000000000000000    -0.006194553140000
3 16
    -0.013573631100000    -0.000000000000000    -0.000000000000000
    -0.000000000000000     0.001743036320000     0.000886652020000
    -0.000000000000000     0.000886652020000     0.003763887070000
3 17
   -22.528299668669998     7.663198044889999    -0.000000000000000
     7.663198044889999   -13.679606194869999    -0.000000000000000
    -0.000000000000000    -0.000000000000000    -5.165824202100000
3 18
   -22.528292462069999    -7.663191679059999    -0.000000000000000
    -7.663191679059999   -13.679606194869999     0.000000000000000
     0.000000000000000     0.000000000000000    -5.165824202100000
3 19
    -9.255255254120000     0.000006365830000     0.000000000000000
     0.000006365830000   -26.952650969750000     0.000000000000000
    -0.000000000000000     0.000000000000000    -5.165824202100000
3 20
    -1.355543563610000     0.000000360330000    -0.000000000000000
     0.000000360330000    -1.355544044050000     0.000000000000000
     0.000000000000000    -0.000000000000000    -1.258987254720000
3 21
    -0.000431435120000    -0.004972193670000     0.000000000000000
    -0.004972193670000    -0.006172813230000    -0.000000000000000
    -0.000000000000000    -0.000000000000000    -0.000493411880000
3 22
    -0.000431435120000     0.004972193670000     0.000000000000000
     0.004972193670000    -0.006172813230000     0.000000000000000
     0.000000000000000     0.000000000000000    -0.000493411880000
3 23
    -0.009043562340000    -0.000000000000000     0.000000000000000
    -0.000000000000000     0.002439193880000     0.000000000000000
    -0.000000000000000     0.000000000000000    -0.000493411880000
3 24
    -0.003280564430000     0.000000000000000    -0.000000000000000
     0.000000000000000    -0.003280564430000    -0.000000000000000
     0.000000000000000    -0.000000000000000    -0.000663367530000
3 25
    -0.021169507610000     0.000000000000000     0.000000000000000
     0.000000000000000    -0.021169507610000     0.000000000000000
    -0.000000000000000    -0.000000000000000     0.008198588490000
3 26
    -0.000208871290000     0.000000000000000    -0.000000000000000
     0.000000000000000    -0.014009990730000     0.001424144270000
    -0.000000000000000     0.001695712980000    -0.006741774300000
3 27
    -0.010559710870000    -0.005976073050000    -0.001233289480000
    -0.005976073050000    -0.003659151150000    -0.000712012080000
    -0.001468584970000    -0.000847856490000    -0.006741774300000
3 28
    -0.010559710870000     0.005976073050000     0.001233289480000
     0.005976073050000    -0.003659151150000    -0.000712012080000
     0.001468584970000    -0.000847856490000    -0.006741774300000
3 29
    -0.021169507610000     0.000000000000000    -0.000000000000000
     0.000000000000000    -0.021169507610000    -0.000000000000000
     0.000000000000000     0.000000000000000     0.008198588490000
3 30
    -0.000208871290000     0.000000000000000     0.000000000000000
     0.000000000000000    -0.014009990730000    -0.001424144270000
     0.000000000000000    -0.001695712980000    -0.006741774300000
3 31
    -0.010559710870000    -0.005976073050000     0.001233289480000
    -0.005976073050000    -0.003659151150000     0.000712012080000
     0.001468584970000     0.000847856490000    -0.006741774300000
3 32
    -0.010559710870000     0.005976073050000    -0.001233289480000
     0.005976073050000    -0.003659151150000     0.000712012080000
    -0.001468584970000     0.000847856490000    -0.006741774300000
4 1
     1.039931477490000    -5.883275823779999    -0.000000000000000
    -5.883275823779999    -5.753495287240000     0.000000000000000
    -0.000000000000000     0.000000000000000     0.786364013520000
4 2
     1.039926072540000     5.883278466199999     0.000000000000000
     5.883278466199999    -5.753495287240000    -0.000000000000000
     0.000000000000000    -0.000000000000000     0.786364013520000
4 3
    -9.150204645919999    -0.000001080990000    -0.000000000000000
    -0.000001080990000     4.436641196499999    -0.000000000000000
    -0.000000000000000    -0.000000000000000     0.786364013520000
4 4
    62.872202870899990    -0.000014653420000     0.000000000000000
    -0.000014653420000    62.872221367839998     0.000000000000000
     0.000000000000000     0.000000000000000    14.405886742320000
4 5
    -0.003345423830000    -0.003825983940000     0.000000000000000
    -0.003825983940000    -0.007763309850000     0.000000000000000
     0.000000000000000     0.000000000000000     0.000027745410000
4 6
    -0.003345423830000     0.003825983940000     0.000000000000000
     0.003825983940000    -0.007763309850000    -0.000000000000000
     0.000000000000000    -0.000000000000000     0.000027745410000
4 7
    -0.009972252860000     0.000000000000000    -0.000000000000000
     0.000000000000000    -0.001136480820000    -0.000000000000000
    -0.000000000000000    -0.000000000000000     0.000027745410000
4 8
    -0.008001728200000     0.000000000000000    -0.000000000000000
     0.000000000000000    -0.008001728200000    -0.000000000000000
    -0.000000000000000    -0.000000000000000     0.000766542020000
4 9
    -0.002086190590000    -0.006632354090000    -0.000767863230000
    -0.006632354090000    -0.009744524300000     0.000443326010000
    -0.000767863230000     0.000443326010000     0.003763887070000
4 10
    -0.002086190590000     0.006632354090000     0.000767863230000
     0.006632354090000    -0.009744524300000     0.000443326010000
     0.000767863230000     0.000443326010000     0.003763887070000
4 11
    -0.013573631100000    -0.000000000000000     0.000000000000000
    -0.000000000000000     0.001743036320000    -0.000886652020000
     0.000000000000000    -0.000886652020000     0.003763887070000
4 12
     0.009498418910000    -0.000000000000000    -0.000000000000000
    -0.000000000000000     0.009498418910000     0.000000000000000
    -0.000000000000000     0.000000000000000    -0.006194553140000
4 13
    -0.002086190590000    -0.006632354090000     0.000767863230000
    -0.006632354090000    -0.009744524300000    -0.000443326010000
     0.000767863230000    -0.000443326010000     0.003763887070000
4 14
    -0.002086190590000     0.006632354090000    -0.000767863230000
     0.006632354090000    -0.009744524300000    -0.000443326010000
    -0.000767863230000    -0.000443326010000     0.003763887070000
4 15
    -0.013573631100000    -0.000000000000000    -0.000000000000000
    -0.000000000000000     0.001743036320000     0.000886652020000
    -0.000000000000000     0.000886652020000     0.003763887070000
4 16
     0.009498418910000    -0.000000000000000     0.000000000000000
    -0.000000000000000     0.009498418910000    -0.000000000000000
     0.000000000000000    -0.000000000000000    -0.006194553140000
4 17
   -22.528292462069999    -7.663191679059999    -0.000000000000000
    -7.663191679059999   -13.679606194869999     0.000000000000000
     0.000000000000000     0.000000000000000    -5.165824202100000
4 18
   -22.528299668669998     7.663198044889999    -0.000000000000000
     7.663198044889999   -13.679606194869999    -0.000000000000000
    -0.000000000000000    -0.000000000000000    -5.165824202100000
4 19
    -1.355543563610000     0.000000360330000    -0.000000000000000
     0.000000360330000    -1.355544044050000     0.000000000000000
     0.000000000000000    -0.000000000000000    -1.258987254720000
4 20
    -9.255255254120000     0.000006365830000     0.000000000000000
     0.000006365830000   -26.952650969750000     0.000000000000000
    -0.000000000000000     0.000000000000000    -5.165824202100000
4 21
    -0.000431435120000     0.004972193670000     0.000000000000000
     0.004972193670000    -0.006172813230000     0.000000000000000
     0.000000000000000     0.000000000000000    -0.000493411880000
4 22
    -0.000431435120000    -0.004972193670000     0.000000000000000
    -0.004972193670000    -0.006172813230000    -0.000000000000000
    -0.000000000000000    -0.000000000000000    -0.000493411880000
4 23
    -0.003280564430000     0.000000000000000    -0.000000000000000
     0.000000000000000    -0.003280564430000    -0.000000000000000
     0.000000000000000    -0.000000000000000    -0.000663367530000
4 24
    -0.009043562340000    -0.000000000000000     0.000000000000000
    -0.000000000000000     0.002439193880000     0.000000000000000
    -0.000000000000000     0.000000000000000    -0.000493411880000
4 25
    -0.000208871290000     0.000000000000000    -0.000000000000000
     0.000000000000000    -0.014009990730000     0.001424144270000
    -0.000000000000000     0.001695712980000    -0.006741774300000
4 26
    -0.021169507610000     0.000000000000000     0.000000000000000
     0.000000000000000    -0.021169507610000     0.000000000000000
    -0.000000000000000    -0.000000000000000     0.008198588490000
4 27
    -0.010559710870000     0.005976073050000     0.001233289480000
     0.005976073050000    -0.003659151150000    -0.000712012080000
     0.001468584970000    -0.000847856490000    -0.006741774300000
4 28
    -0.010559710870000    -0.005976073050000    -0.001233289480000
    -0.005976073050000    -0.003659151150000    -0.000712012080000
    -0.001468584970000    -0.000847856490000    -0.006741774300000
4 29
    -0.000208871290000     0.000000000000000     0.000000000000000
     0.000000000000000    -0.014009990730000    -0.001424144270000
     0.000000000000000    -0.001695712980000    -0.006741774300000
4 30
    -0.021169507610000     0.000000000000000    -0.000000000000000
     0.000000000000000    -0.021169507610000    -0.000000000000000
     0.000000000000000     0.000000000000000     0.008198588490000
4 31
    -0.010559710870000     0.005976073050000    -0.001233289480000
     0.005976073050000    -0.003659151150000     0.000712012080000
    -0.001468584970000     0.000847856490000    -0.006741774300000
4 32
    -0.010559710870000    -0.005976073050000     0.001233289480000
    -0.005976073050000    -0.003659151150000     0.000712012080000
     0.001468584970000     0.000847856490000    -0.006741774300000
5 1
    -0.008001728200000     0.000000000000000    -0.000000000000000
     0.000000000000000    -0.008001728200000    -0.000000000000000
    -0.000000000000000    -0.000000000000000     0.000766542020000
5 2
    -0.009972252860000     0.000000000000000    -0.000000000000000
     0.000000000000000    -0.001136480820000    -0.000000000000000
    -0.000000000000000    -0.000000000000000     0.000027745410000
5 3
    -0.003345423830000     0.003825983940000     0.000000000000000
     0.003825983940000    -0.007763309850000    -0.000000000000000
     0.000000000000000    -0.000000000000000     0.000027745410000
5 4
    -0.003345423830000    -0.003825983940000     0.000000000000000
    -0.003825983940000    -0.007763309850000     0.000000000000000
     0.000000000000000     0.000000000000000     0.000027745410000
5 5
    62.872202870899990    -0.000014653420000     0.000000000000000
    -0.000014653420000    62.872221367839998     0.000000000000000
     0.000000000000000     0.000000000000000    14.405886742320000
5 6
    -9.150204645919999    -0.000001080990000    -0.000000000000000
    -0.000001080990000     4.436641196499999    -0.000000000000000
    -0.000000000000000    -0.000000000000000     0.786364013520000
5 7
     1.039926072540000     5.883278466199999     0.000000000000000
     5.883278466199999    -5.753495287240000    -0.000000000000000
     0.000000000000000    -0.000000000000000     0.786364013520000
5 8
     1.039931477490000    -5.883275823779999    -0.000000000000000
    -5.883275823779999    -5.753495287240000     0.000000000000000
    -0.000000000000000     0.000000000000000     0.786364013520000
5 9
     0.009498418910000    -0.000000000000000     0.000000000000000
    -0.000000000000000     0.009498418910000    -0.000000000000000
     0.000000000000000    -0.000000000000000    -0.006194553140000
5 10
    -0.013573631100000    -0.000000000000000    -0.000000000000000
    -0.000000000000000     0.001743036320000     0.000886652020000
    -0.000000000000000     0.000886652020000     0.003763887070000
5 11
    -0.002086190590000     0.006632354090000    -0.000767863230000
     0.006632354090000    -0.009744524300000    -0.000443326010000
    -0.000767863230000    -0.000443326010000     0.003763887070000
5 12
    -0.002086190590000    -0.006632354090000     0.000767863230000
    -0.006632354090000    -0.009744524300000    -0.000443326010000
     0.000767863230000    -0.000443326010000     0.003763887070000
5 13
     0.009498418910000    -0.000000000000000    -0.000000000000000
    -0.000000000000000     0.009498418910000     0.000000000000000
    -0.000000000000000     0.000000000000000    -0.006194553140000
5 14
    -0.013573631100000    -0.000000000000000     0.000000000000000
    -0.000000000000000     0.001743036320000    -0.000886652020000
     0.000000000000000    -0.000886652020000     0.003763887070000
5 15
    -0.002086190590000     0.006632354090000     0.000767863230000
     0.006632354090000    -0.009744524300000     0.000443326010000
     0.000767863230000     0.000443326010000     0.003763887070000
5 16
    -0.002086190590000    -0.006632354090000    -0.000767863230000
    -0.006632354090000    -0.009744524300000     0.000443326010000
    -0.000767863230000     0.000443326010000     0.003763887070000
5 17
    -0.009043562340000    -0.000000000000000     0.000000000000000
    -0.000000000000000     0.002439193880000     0.000000000000000
    -0.000000000000000     0.000000000000000    -0.000493411880000
5 18
    -0.003280564430000     0.000000000000000    -0.000000000000000
     0.000000000000000    -0.003280564430000    -0.000000000000000