       N       E                     dE             d eps       ncg     rms          rms(c)
DAV:   1    -0.187118871814E+04   -0.18712E+04   -0.89773E+04  2624   0.938E+02
DAV:   2    -0.257938440661E+04   -0.70820E+03   -0.65453E+03  2128   0.290E+02
DAV:   3    -0.262119705803E+04   -0.41813E+02   -0.41104E+02  2816   0.644E+01
DAV:   4    -0.262276160141E+04   -0.15645E+01   -0.15510E+01  2992   0.122E+01
DAV:   5    -0.262282175180E+04   -0.60150E-01   -0.59938E-01  2736   0.215E+00    0.130E+02
RMM:   6    -0.124064498380E+04    0.13822E+04   -0.38847E+02  1792   0.502E+01    0.770E+01
RMM:   7    -0.305724133397E+03    0.93492E+03   -0.15530E+03  1802   0.838E+01    0.247E+01
RMM:   8    -0.314645624899E+03   -0.89215E+01   -0.44210E+01  1792   0.177E+01    0.131E+01
RMM:   9    -0.294748570237E+03    0.19897E+02   -0.72708E+01  1792   0.156E+01    0.240E+00
RMM:  10    -0.295458273071E+03   -0.70970E+00   -0.18706E+00  1796   0.349E+00    0.244E+00
RMM:  11    -0.295249000721E+03    0.20927E+00   -0.11510E+00  1792   0.235E+00    0.533E-01
RMM:  12    -0.295311203553E+03   -0.62203E-01   -0.77074E-02  1797   0.784E-01    0.234E-01
RMM:  13    -0.295312356491E+03   -0.11529E-02   -0.60590E-03  1792   0.203E-01    0.756E-02
RMM:  14    -0.295312662975E+03   -0.30648E-03   -0.65821E-04  1792   0.680E-02    0.270E-02
RMM:  15    -0.295312687977E+03   -0.25003E-04   -0.80682E-05  1793   0.247E-02    0.954E-03
RMM:  16    -0.295312695197E+03   -0.72192E-05   -0.93037E-06  1686   0.938E-03    0.204E-03
RMM:  17    -0.295312695952E+03   -0.75589E-06   -0.66510E-07  1284   0.229E-03
   1 F= -.29531270E+03 E0= -.29531270E+03  d E =0.000000E+00  mag=    -0.0000
 Linear response reoptimize wavefunctions
DAV:   1    -0.295312695924E+03    0.28856E-07   -0.33618E-07  2336   0.150E-03
DAV:   2    -0.295312695925E+03   -0.17421E-08   -0.16904E-08  1776   0.294E-04
DAV:   3    -0.295312695925E+03    0.61391E-10   -0.67962E-10  1760   0.775E-05
 Linear response DOF=            4
 Linear response progress:
  Degree of freedom:   1/  4
       N       E                     dE             d eps       ncg     rms          rms(c)
RMM:   1    -0.156592646957E+00   -0.15659E+00    0.28864E-02 11938   0.952E-01
RMM:   2    -0.128748726762E+00    0.27844E-01   -0.76719E-03  6924   0.209E-01    0.247E-01
RMM:   3    -0.127957885625E+00    0.79084E-03   -0.21136E-03  7869   0.859E-02    0.114E-01
RMM:   4    -0.128343896412E+00   -0.38601E-03   -0.18419E-04  8304   0.369E-02    0.420E-02
RMM:   5    -0.128611465136E+00   -0.26757E-03    0.74603E-05  8435   0.181E-02    0.815E-03
RMM:   6    -0.128608223873E+00    0.32413E-05   -0.14340E-04  8792   0.102E-02    0.148E-03
RMM:   7    -0.128600843367E+00    0.73805E-05   -0.10881E-04  8956   0.950E-03    0.532E-04
RMM:   8    -0.128596783276E+00    0.40601E-05   -0.93139E-05  8927   0.946E-03    0.207E-04
 Linear response progress:
  Degree of freedom:   2/  4
       N       E                     dE             d eps       ncg     rms          rms(c)
RMM:   1    -0.125306764834E+00   -0.12531E+00    0.61369E-03  3659   0.688E-01
RMM:   2    -0.122603088295E+00    0.27037E-02   -0.24661E-03  2835   0.119E-01    0.171E-01
RMM:   3    -0.122447184728E+00    0.15590E-03   -0.40997E-04  2836   0.447E-02    0.904E-02
RMM:   4    -0.122640280995E+00   -0.19310E-03   -0.33296E-04  2931   0.391E-02    0.146E-02
RMM:   5    -0.122507323747E+00    0.13296E-03   -0.99350E-05  3409   0.139E-02    0.236E-03
RMM:   6    -0.122498043242E+00    0.92805E-05   -0.90254E-05  3548   0.106E-02    0.686E-04
RMM:   7    -0.122490621302E+00    0.74219E-05   -0.89549E-05  3579   0.104E-02    0.269E-04
RMM:   8    -0.122490579048E+00    0.42253E-07   -0.90580E-05  3591   0.104E-02    0.156E-04
 Linear response progress:
  Degree of freedom:   3/  4
       N       E                     dE             d eps       ncg     rms          rms(c)
RMM:   1    -0.156595216541E+00   -0.15660E+00    0.28786E-02 11891   0.952E-01
RMM:   2    -0.128506842139E+00    0.28088E-01   -0.66161E-03  6967   0.209E-01    0.247E-01
RMM:   3    -0.127923484372E+00    0.58336E-03   -0.30585E-03  7870   0.861E-02    0.114E-01
RMM:   4    -0.128229289715E+00   -0.30581E-03   -0.27268E-04  8292   0.368E-02    0.420E-02
RMM:   5    -0.128489684686E+00   -0.26039E-03    0.57206E-05  8488   0.179E-02    0.814E-03
RMM:   6    -0.128483683265E+00    0.60014E-05   -0.15517E-04  8795   0.981E-03    0.150E-03
RMM:   7    -0.128460757621E+00    0.22926E-04    0.21665E-05  8948   0.906E-03    0.527E-04
RMM:   8    -0.128455313058E+00    0.54446E-05    0.40479E-05  8928   0.902E-03    0.197E-04
 Linear response progress:
  Degree of freedom:   4/  4
       N       E                     dE             d eps       ncg     rms          rms(c)
RMM:   1    -0.125430591867E+00   -0.12543E+00    0.56388E-03  3660   0.688E-01
RMM:   2    -0.122707372626E+00    0.27232E-02   -0.24246E-03  2809   0.119E-01    0.171E-01
RMM:   3    -0.122547103847E+00    0.16027E-03   -0.39207E-04  2802   0.448E-02    0.903E-02
RMM:   4    -0.122739075784E+00   -0.19197E-03   -0.31694E-04  2885   0.391E-02    0.146E-02
RMM:   5    -0.122610145488E+00    0.12893E-03   -0.78168E-05  3390   0.133E-02    0.238E-03
RMM:   6    -0.122600925070E+00    0.92204E-05   -0.71447E-05  3574   0.993E-03    0.638E-04
RMM:   7    -0.122593890810E+00    0.70343E-05   -0.68349E-05  3576   0.973E-03    0.254E-04
RMM:   8    -0.122595345930E+00   -0.14551E-05   -0.70802E-05  3590   0.973E-03    0.133E-04
 Linear response finished
