  32   32
1 1
    62.871995440929993    -0.000014653420000     0.000000000000000
    -0.000014653420000    62.872013937870001    -0.000000000000000
     0.000000000000000    -0.000000000000000    14.406502426179999
1 2
    -9.150258695420000    -0.000001080990000     0.000000000000000
    -0.000001080990000     4.436765750570000     0.000000000000000
     0.000000000000000     0.000000000000000     0.786329902280000
1 3
     1.040005825580000     5.883355817039999    -0.000000000000000
     5.883355817039999    -5.753504655820000    -0.000000000000000
    -0.000000000000000    -0.000000000000000     0.786329902280000
1 4
     1.040011350640000    -5.883353054510000    -0.000000000000000
    -5.883353054510000    -5.753504655820000    -0.000000000000000
    -0.000000000000000    -0.000000000000000     0.786329902280000
1 5
    -0.007991398740000     0.000000000000000    -0.000000000000000
     0.000000000000000    -0.007991398740000     0.000000000000000
    -0.000000000000000     0.000000000000000     0.000725944840000
1 6
    -0.009957839660000     0.000000000000000    -0.000000000000000
     0.000000000000000    -0.001130835650000     0.000000000000000
    -0.000000000000000     0.000000000000000    -0.000012131110000
1 7
    -0.003337496570000     0.003822260530000    -0.000000000000000
     0.003822260530000    -0.007751058630000    -0.000000000000000
    -0.000000000000000    -0.000000000000000    -0.000012131110000
1 8
    -0.003337496570000    -0.003822260530000    -0.000000000000000
    -0.003822260530000    -0.007751058630000     0.000000000000000
    -0.000000000000000     0.000000000000000    -0.000012131110000
1 9
     0.009509949470000    -0.000000000000000     0.000000000000000
    -0.000000000000000     0.009509949470000    -0.000000000000000
     0.000000000000000    -0.000000000000000    -0.006213650630000
1 10
    -0.013563181530000    -0.000000000000000     0.000000000000000
    -0.000000000000000     0.001749642370000    -0.000885450920000
     0.000000000000000    -0.000885450920000     0.003742507490000
1 11
    -0.002078623660000     0.006630672550000     0.000766902350000
     0.006630672550000    -0.009735035610000     0.000442725460000
     0.000766902350000     0.000442725460000     0.003742507490000
1 12
    -0.002078503550000    -0.006630672550000    -0.000766902350000
    -0.006630672550000    -0.009735035610000     0.000442725460000
    -0.000766902350000     0.000442725460000     0.003742507490000
1 13
     0.009509949470000    -0.000000000000000    -0.000000000000000
    -0.000000000000000     0.009509949470000     0.000000000000000
    -0.000000000000000     0.000000000000000    -0.006213650630000
1 14
    -0.013563181530000    -0.000000000000000    -0.000000000000000
    -0.000000000000000     0.001749642370000     0.000885450920000
    -0.000000000000000     0.000885450920000     0.003742507490000
1 15
    -0.002078623660000     0.006630672550000    -0.000766902350000
     0.006630672550000    -0.009735035610000    -0.000442725460000
    -0.000766902350000    -0.000442725460000     0.003742507490000
1 16
    -0.002078503550000    -0.006630672550000     0.000766902350000
    -0.006630672550000    -0.009735035610000    -0.000442725460000
     0.000766902350000    -0.000442725460000     0.003742507490000
1 17
    -9.255250810049999     0.000006365830000    -0.000000000000000
     0.000006365830000   -26.952514885119999    -0.000000000000000
     0.000000000000000    -0.000000000000000    -5.165655567660000
1 18
    -1.355574311770000     0.000000360330000    -0.000000000000000
     0.000000360330000    -1.355574792210000     0.000000000000000
    -0.000000000000000     0.000000000000000    -1.259041424330000
1 19
   -22.528196494179998     7.663140992639999     0.000000000000000
     7.663140992639999   -13.679568840660000    -0.000000000000000
     0.000000000000000    -0.000000000000000    -5.165655567660000
1 20
   -22.528189287579998    -7.663134626809999    -0.000000000000000
    -7.663134626809999   -13.679568840660000     0.000000000000000
     0.000000000000000     0.000000000000000    -5.165655567660000
1 21
    -0.009049327620000    -0.000000000000000    -0.000000000000000
    -0.000000000000000     0.002437512340000     0.000000000000000
    -0.000000000000000     0.000000000000000    -0.000553947320000
1 22
    -0.003288011250000     0.000000000000000    -0.000000000000000
     0.000000000000000    -0.003288011250000     0.000000000000000
    -0.000000000000000    -0.000000000000000    -0.000721981210000
1 23
    -0.000434197650000    -0.004973875210000    -0.000000000000000
    -0.004973875210000    -0.006177617630000    -0.000000000000000
    -0.000000000000000    -0.000000000000000    -0.000553947320000
1 24
    -0.000434197650000     0.004973875210000     0.000000000000000
     0.004973875210000    -0.006177617630000     0.000000000000000
    -0.000000000000000     0.000000000000000    -0.000553947320000
1 25
    -0.010563554390000    -0.005973790960000    -0.001235811790000
    -0.005973790960000    -0.003665516980000    -0.000713453400000
    -0.001466663210000    -0.000846775500000    -0.006774804550000
1 26
    -0.010563554390000     0.005973790960000     0.001235811790000
     0.005973790960000    -0.003665516980000    -0.000713453400000
     0.001466663210000    -0.000846775500000    -0.006774804550000
1 27
    -0.021180437620000     0.000000000000000    -0.000000000000000
     0.000000000000000    -0.021180437620000    -0.000000000000000
    -0.000000000000000    -0.000000000000000     0.008172164290000
1 28
    -0.000216558330000     0.000000000000000    -0.000000000000000
     0.000000000000000    -0.014012513040000     0.001427026910000
    -0.000000000000000     0.001693671110000    -0.006774804550000
1 29
    -0.010563554390000    -0.005973790960000     0.001235811790000
    -0.005973790960000    -0.003665516980000     0.000713453400000
     0.001466663210000     0.000846775500000    -0.006774804550000
1 30
    -0.010563554390000     0.005973790960000    -0.001235811790000
     0.005973790960000    -0.003665516980000     0.000713453400000
    -0.001466663210000     0.000846775500000    -0.006774804550000
1 31
    -0.021180437620000     0.000000000000000     0.000000000000000
     0.000000000000000    -0.021180437620000     0.000000000000000
     0.000000000000000     0.000000000000000     0.008172164290000
1 32
    -0.000216558330000     0.000000000000000     0.000000000000000
     0.000000000000000    -0.014012513040000    -0.001427026910000
     0.000000000000000    -0.001693671110000    -0.006774804550000
2 1
    -9.150258695420000    -0.000001080990000     0.000000000000000
    -0.000001080990000     4.436765750570000     0.000000000000000
     0.000000000000000     0.000000000000000     0.786329902280000
2 2
    62.871995440929993    -0.000014653420000     0.000000000000000
    -0.000014653420000    62.872013937870001    -0.000000000000000
     0.000000000000000    -0.000000000000000    14.406502426179999
2 3
     1.040011350640000    -5.883353054510000    -0.000000000000000
    -5.883353054510000    -5.753504655820000    -0.000000000000000
    -0.000000000000000    -0.000000000000000     0.786329902280000
2 4
     1.040005825580000     5.883355817039999    -0.000000000000000
     5.883355817039999    -5.753504655820000    -0.000000000000000
    -0.000000000000000    -0.000000000000000     0.786329902280000
2 5
    -0.009957839660000     0.000000000000000    -0.000000000000000
     0.000000000000000    -0.001130835650000     0.000000000000000
    -0.000000000000000     0.000000000000000    -0.000012131110000
2 6
    -0.007991398740000     0.000000000000000    -0.000000000000000
     0.000000000000000    -0.007991398740000     0.000000000000000
    -0.000000000000000     0.000000000000000     0.000725944840000
2 7
    -0.003337496570000    -0.003822260530000    -0.000000000000000
    -0.003822260530000    -0.007751058630000     0.000000000000000
    -0.000000000000000     0.000000000000000    -0.000012131110000
2 8
    -0.003337496570000     0.003822260530000    -0.000000000000000
     0.003822260530000    -0.007751058630000    -0.000000000000000
    -0.000000000000000    -0.000000000000000    -0.000012131110000
2 9
    -0.013563181530000    -0.000000000000000     0.000000000000000
    -0.000000000000000     0.001749642370000    -0.000885450920000
     0.000000000000000    -0.000885450920000     0.003742507490000
2 10
     0.009509949470000    -0.000000000000000     0.000000000000000
    -0.000000000000000     0.009509949470000    -0.000000000000000
     0.000000000000000    -0.000000000000000    -0.006213650630000
2 11
    -0.002078503550000    -0.006630672550000    -0.000766902350000
    -0.006630672550000    -0.009735035610000     0.000442725460000
    -0.000766902350000     0.000442725460000     0.003742507490000
2 12
    -0.002078623660000     0.006630672550000     0.000766902350000
     0.006630672550000    -0.009735035610000     0.000442725460000
     0.000766902350000     0.000442725460000     0.003742507490000
2 13
    -0.013563181530000    -0.000000000000000    -0.000000000000000
    -0.000000000000000     0.001749642370000     0.000885450920000
    -0.000000000000000     0.000885450920000     0.003742507490000
2 14
     0.009509949470000    -0.000000000000000    -0.000000000000000
    -0.000000000000000     0.009509949470000     0.000000000000000
    -0.000000000000000     0.000000000000000    -0.006213650630000
2 15
    -0.002078503550000    -0.006630672550000     0.000766902350000
    -0.006630672550000    -0.009735035610000    -0.000442725460000
     0.000766902350000    -0.000442725460000     0.003742507490000
2 16
    -0.002078623660000     0.006630672550000    -0.000766902350000
     0.006630672550000    -0.009735035610000    -0.000442725460000
    -0.000766902350000    -0.000442725460000     0.003742507490000
2 17
    -1.355574311770000     0.000000360330000    -0.000000000000000
     0.000000360330000    -1.355574792210000     0.000000000000000
    -0.000000000000000     0.000000000000000    -1.259041424330000
2 18
    -9.255250810049999     0.000006365830000    -0.000000000000000
     0.000006365830000   -26.952514885119999    -0.000000000000000
     0.000000000000000    -0.000000000000000    -5.165655567660000
2 19
   -22.528189287579998    -7.663134626809999    -0.000000000000000
    -7.663134626809999   -13.679568840660000     0.000000000000000
     0.000000000000000     0.000000000000000    -5.165655567660000
2 20
   -22.528196494179998     7.663140992639999     0.000000000000000
     7.663140992639999   -13.679568840660000    -0.000000000000000
     0.000000000000000    -0.000000000000000    -5.165655567660000
2 21
    -0.003288011250000     0.000000000000000    -0.000000000000000
     0.000000000000000    -0.003288011250000     0.000000000000000
    -0.000000000000000    -0.000000000000000    -0.000721981210000
2 22
    -0.009049327620000    -0.000000000000000    -0.000000000000000
    -0.000000000000000     0.002437512340000     0.000000000000000
    -0.000000000000000     0.000000000000000    -0.000553947320000
2 23
    -0.000434197650000     0.004973875210000     0.000000000000000
     0.004973875210000    -0.006177617630000     0.000000000000000
    -0.000000000000000     0.000000000000000    -0.000553947320000
2 24
    -0.000434197650000    -0.004973875210000    -0.000000000000000
    -0.004973875210000    -0.006177617630000    -0.000000000000000
    -0.000000000000000    -0.000000000000000    -0.000553947320000
2 25
    -0.010563554390000     0.005973790960000     0.001235811790000
     0.005973790960000    -0.003665516980000    -0.000713453400000
     0.001466663210000    -0.000846775500000    -0.006774804550000
2 26
    -0.010563554390000    -0.005973790960000    -0.001235811790000
    -0.005973790960000    -0.003665516980000    -0.000713453400000
    -0.001466663210000    -0.000846775500000    -0.006774804550000
2 27
    -0.000216558330000     0.000000000000000    -0.000000000000000
     0.000000000000000    -0.014012513040000     0.001427026910000
    -0.000000000000000     0.001693671110000    -0.006774804550000
2 28
    -0.021180437620000     0.000000000000000    -0.000000000000000
     0.000000000000000    -0.021180437620000    -0.000000000000000
    -0.000000000000000    -0.000000000000000     0.008172164290000
2 29
    -0.010563554390000     0.005973790960000    -0.001235811790000
     0.005973790960000    -0.003665516980000     0.000713453400000
    -0.001466663210000     0.000846775500000    -0.006774804550000
2 30
    -0.010563554390000    -0.005973790960000     0.001235811790000
    -0.005973790960000    -0.003665516980000     0.000713453400000
     0.001466663210000     0.000846775500000    -0.006774804550000
2 31
    -0.000216558330000     0.000000000000000     0.000000000000000
     0.000000000000000    -0.014012513040000    -0.001427026910000
     0.000000000000000    -0.001693671110000    -0.006774804550000
2 32
    -0.021180437620000     0.000000000000000     0.000000000000000
     0.000000000000000    -0.021180437620000     0.000000000000000
     0.000000000000000     0.000000000000000     0.008172164290000
3 1
     1.040005825580000     5.883355817039999    -0.000000000000000
     5.883355817039999    -5.753504655820000    -0.000000000000000
    -0.000000000000000    -0.000000000000000     0.786329902280000
3 2
     1.040011350640000    -5.883353054510000    -0.000000000000000
    -5.883353054510000    -5.753504655820000    -0.000000000000000
    -0.000000000000000    -0.000000000000000     0.786329902280000
3 3
    62.871995440929993    -0.000014653420000     0.000000000000000
    -0.000014653420000    62.872013937870001    -0.000000000000000
     0.000000000000000    -0.000000000000000    14.406502426179999
3 4
    -9.150258695420000    -0.000001080990000     0.000000000000000
    -0.000001080990000     4.436765750570000     0.000000000000000
     0.000000000000000     0.000000000000000     0.786329902280000
3 5
    -0.003337496570000     0.003822260530000    -0.000000000000000
     0.003822260530000    -0.007751058630000    -0.000000000000000
    -0.000000000000000    -0.000000000000000    -0.000012131110000
3 6
    -0.003337496570000    -0.003822260530000    -0.000000000000000
    -0.003822260530000    -0.007751058630000     0.000000000000000
    -0.000000000000000     0.000000000000000    -0.000012131110000
3 7
    -0.007991398740000     0.000000000000000    -0.000000000000000
     0.000000000000000    -0.007991398740000     0.000000000000000
    -0.000000000000000     0.000000000000000     0.000725944840000
3 8
    -0.009957839660000     0.000000000000000    -0.000000000000000
     0.000000000000000    -0.001130835650000     0.000000000000000
    -0.000000000000000     0.000000000000000    -0.000012131110000
3 9
    -0.002078623660000     0.006630672550000     0.000766902350000
     0.006630672550000    -0.009735035610000     0.000442725460000
     0.000766902350000     0.000442725460000     0.003742507490000
3 10
    -0.002078503550000    -0.006630672550000    -0.000766902350000
    -0.006630672550000    -0.009735035610000     0.000442725460000
    -0.000766902350000     0.000442725460000     0.003742507490000
3 11
     0.009509949470000    -0.000000000000000     0.000000000000000
    -0.000000000000000     0.009509949470000    -0.000000000000000
     0.000000000000000    -0.000000000000000    -0.006213650630000
3 12
    -0.013563181530000    -0.000000000000000     0.000000000000000
    -0.000000000000000     0.001749642370000    -0.000885450920000
     0.000000000000000    -0.000885450920000     0.003742507490000
3 13
    -0.002078623660000     0.006630672550000    -0.000766902350000
     0.006630672550000    -0.009735035610000    -0.000442725460000
    -0.000766902350000    -0.000442725460000     0.003742507490000
3 14
    -0.002078503550000    -0.006630672550000     0.000766902350000
    -0.006630672550000    -0.009735035610000    -0.000442725460000
     0.000766902350000    -0.000442725460000     0.003742507490000
3 15
     0.009509949470000    -0.000000000000000    -0.000000000000000
    -0.000000000000000     0.009509949470000     0.000000000000000
    -0.000000000000000     0.000000000000000    -0.006213650630000
3 16
    -0.013563181530000    -0.000000000000000    -0.000000000000000
    -0.000000000000000     0.001749642370000     0.000885450920000
    -0.000000000000000     0.000885450920000     0.003742507490000
3 17
   -22.528196494179998     7.663140992639999     0.000000000000000
     7.663140992639999   -13.679568840660000    -0.000000000000000
     0.000000000000000    -0.000000000000000    -5.165655567660000
3 18
   -22.528189287579998    -7.663134626809999    -0.000000000000000
    -7.663134626809999   -13.679568840660000     0.000000000000000
     0.000000000000000     0.000000000000000    -5.165655567660000
3 19
    -9.255250810049999     0.000006365830000    -0.000000000000000
     0.000006365830000   -26.952514885119999    -0.000000000000000
     0.000000000000000    -0.000000000000000    -5.165655567660000
3 20
    -1.355574311770000     0.000000360330000    -0.000000000000000
     0.000000360330000    -1.355574792210000     0.000000000000000
    -0.000000000000000     0.000000000000000    -1.259041424330000
3 21
    -0.000434197650000    -0.004973875210000    -0.000000000000000
    -0.004973875210000    -0.006177617630000    -0.000000000000000
    -0.000000000000000    -0.000000000000000    -0.000553947320000
3 22
    -0.000434197650000     0.004973875210000     0.000000000000000
     0.004973875210000    -0.006177617630000     0.000000000000000
    -0.000000000000000     0.000000000000000    -0.000553947320000
3 23
    -0.009049327620000    -0.000000000000000    -0.000000000000000
    -0.000000000000000     0.002437512340000     0.000000000000000
    -0.000000000000000     0.000000000000000    -0.000553947320000
3 24
    -0.003288011250000     0.000000000000000    -0.000000000000000
     0.000000000000000    -0.003288011250000     0.000000000000000
    -0.000000000000000    -0.000000000000000    -0.000721981210000
3 25
    -0.021180437620000     0.000000000000000    -0.000000000000000
     0.000000000000000    -0.021180437620000    -0.000000000000000
    -0.000000000000000    -0.000000000000000     0.008172164290000
3 26
    -0.000216558330000     0.000000000000000    -0.000000000000000
     0.000000000000000    -0.014012513040000     0.001427026910000
    -0.000000000000000     0.001693671110000    -0.006774804550000
3 27
    -0.010563554390000    -0.005973790960000    -0.001235811790000
    -0.005973790960000    -0.003665516980000    -0.000713453400000
    -0.001466663210000    -0.000846775500000    -0.006774804550000
3 28
    -0.010563554390000     0.005973790960000     0.001235811790000
     0.005973790960000    -0.003665516980000    -0.000713453400000
     0.001466663210000    -0.000846775500000    -0.006774804550000
3 29
    -0.021180437620000     0.000000000000000     0.000000000000000
     0.000000000000000    -0.021180437620000     0.000000000000000
     0.000000000000000     0.000000000000000     0.008172164290000
3 30
    -0.000216558330000     0.000000000000000     0.000000000000000
     0.000000000000000    -0.014012513040000    -0.001427026910000
     0.000000000000000    -0.001693671110000    -0.006774804550000
3 31
    -0.010563554390000    -0.005973790960000     0.001235811790000
    -0.005973790960000    -0.003665516980000     0.000713453400000
     0.001466663210000     0.000846775500000    -0.006774804550000
3 32
    -0.010563554390000     0.005973790960000    -0.001235811790000
     0.005973790960000    -0.003665516980000     0.000713453400000
    -0.001466663210000     0.000846775500000    -0.006774804550000
4 1
     1.040011350640000    -5.883353054510000    -0.000000000000000
    -5.883353054510000    -5.753504655820000    -0.000000000000000
    -0.000000000000000    -0.000000000000000     0.786329902280000
4 2
     1.040005825580000     5.883355817039999    -0.000000000000000
     5.883355817039999    -5.753504655820000    -0.000000000000000
    -0.000000000000000    -0.000000000000000     0.786329902280000
4 3
    -9.150258695420000    -0.000001080990000     0.000000000000000
    -0.000001080990000     4.436765750570000     0.000000000000000
     0.000000000000000     0.000000000000000     0.786329902280000
4 4
    62.871995440929993    -0.000014653420000     0.000000000000000
    -0.000014653420000    62.872013937870001    -0.000000000000000
     0.000000000000000    -0.000000000000000    14.406502426179999
4 5
    -0.003337496570000    -0.003822260530000    -0.000000000000000
    -0.003822260530000    -0.007751058630000     0.000000000000000
    -0.000000000000000     0.000000000000000    -0.000012131110000
4 6
    -0.003337496570000     0.003822260530000    -0.000000000000000
     0.003822260530000    -0.007751058630000    -0.000000000000000
    -0.000000000000000    -0.000000000000000    -0.000012131110000
4 7
    -0.009957839660000     0.000000000000000    -0.000000000000000
     0.000000000000000    -0.001130835650000     0.000000000000000
    -0.000000000000000     0.000000000000000    -0.000012131110000
4 8
    -0.007991398740000     0.000000000000000    -0.000000000000000
     0.000000000000000    -0.007991398740000     0.000000000000000
    -0.000000000000000     0.000000000000000     0.000725944840000
4 9
    -0.002078503550000    -0.006630672550000    -0.000766902350000
    -0.006630672550000    -0.009735035610000     0.000442725460000
    -0.000766902350000     0.000442725460000     0.003742507490000
4 10
    -0.002078623660000     0.006630672550000     0.000766902350000
     0.006630672550000    -0.009735035610000     0.000442725460000
     0.000766902350000     0.000442725460000     0.003742507490000
4 11
    -0.013563181530000    -0.000000000000000     0.000000000000000
    -0.000000000000000     0.001749642370000    -0.000885450920000
     0.000000000000000    -0.000885450920000     0.003742507490000
4 12
     0.009509949470000    -0.000000000000000     0.000000000000000
    -0.000000000000000     0.009509949470000    -0.000000000000000
     0.000000000000000    -0.000000000000000    -0.006213650630000
4 13
    -0.002078503550000    -0.006630672550000     0.000766902350000
    -0.006630672550000    -0.009735035610000    -0.000442725460000
     0.000766902350000    -0.000442725460000     0.003742507490000
4 14
    -0.002078623660000     0.006630672550000    -0.000766902350000
     0.006630672550000    -0.009735035610000    -0.000442725460000
    -0.000766902350000    -0.000442725460000     0.003742507490000
4 15
    -0.013563181530000    -0.000000000000000    -0.000000000000000
    -0.000000000000000     0.001749642370000     0.000885450920000
    -0.000000000000000     0.000885450920000     0.003742507490000
4 16
     0.009509949470000    -0.000000000000000    -0.000000000000000
    -0.000000000000000     0.009509949470000     0.000000000000000
    -0.000000000000000     0.000000000000000    -0.006213650630000
4 17
   -22.528189287579998    -7.663134626809999    -0.000000000000000
    -7.663134626809999   -13.679568840660000     0.000000000000000
     0.000000000000000     0.000000000000000    -5.165655567660000
4 18
   -22.528196494179998     7.663140992639999     0.000000000000000
     7.663140992639999   -13.679568840660000    -0.000000000000000
     0.000000000000000    -0.000000000000000    -5.165655567660000
4 19
    -1.355574311770000     0.000000360330000    -0.000000000000000
     0.000000360330000    -1.355574792210000     0.000000000000000
    -0.000000000000000     0.000000000000000    -1.259041424330000
4 20
    -9.255250810049999     0.000006365830000    -0.000000000000000
     0.000006365830000   -26.952514885119999    -0.000000000000000
     0.000000000000000    -0.000000000000000    -5.165655567660000
4 21
    -0.000434197650000     0.004973875210000     0.000000000000000
     0.004973875210000    -0.006177617630000     0.000000000000000
    -0.000000000000000     0.000000000000000    -0.000553947320000
4 22
    -0.000434197650000    -0.004973875210000    -0.000000000000000
    -0.004973875210000    -0.006177617630000    -0.000000000000000
    -0.000000000000000    -0.000000000000000    -0.000553947320000
4 23
    -0.003288011250000     0.000000000000000    -0.000000000000000
     0.000000000000000    -0.003288011250000     0.000000000000000
    -0.000000000000000    -0.000000000000000    -0.000721981210000
4 24
    -0.009049327620000    -0.000000000000000    -0.000000000000000
    -0.000000000000000     0.002437512340000     0.000000000000000
    -0.000000000000000     0.000000000000000    -0.000553947320000
4 25
    -0.000216558330000     0.000000000000000    -0.000000000000000
     0.000000000000000    -0.014012513040000     0.001427026910000
    -0.000000000000000     0.001693671110000    -0.006774804550000
4 26
    -0.021180437620000     0.000000000000000    -0.000000000000000
     0.000000000000000    -0.021180437620000    -0.000000000000000
    -0.000000000000000    -0.000000000000000     0.008172164290000
4 27
    -0.010563554390000     0.005973790960000     0.001235811790000
     0.005973790960000    -0.003665516980000    -0.000713453400000
     0.001466663210000    -0.000846775500000    -0.006774804550000
4 28
    -0.010563554390000    -0.005973790960000    -0.001235811790000
    -0.005973790960000    -0.003665516980000    -0.000713453400000
    -0.001466663210000    -0.000846775500000    -0.006774804550000
4 29
    -0.000216558330000     0.000000000000000     0.000000000000000
     0.000000000000000    -0.014012513040000    -0.001427026910000
     0.000000000000000    -0.001693671110000    -0.006774804550000
4 30
    -0.021180437620000     0.000000000000000     0.000000000000000
     0.000000000000000    -0.021180437620000     0.000000000000000
     0.000000000000000     0.000000000000000     0.008172164290000
4 31
    -0.010563554390000     0.005973790960000    -0.001235811790000
     0.005973790960000    -0.003665516980000     0.000713453400000
    -0.001466663210000     0.000846775500000    -0.006774804550000
4 32
    -0.010563554390000    -0.005973790960000     0.001235811790000
    -0.005973790960000    -0.003665516980000     0.000713453400000
     0.001466663210000     0.000846775500000    -0.006774804550000
5 1
    -0.007991398740000     0.000000000000000    -0.000000000000000
     0.000000000000000    -0.007991398740000     0.000000000000000
    -0.000000000000000     0.000000000000000     0.000725944840000
5 2
    -0.009957839660000     0.000000000000000    -0.000000000000000
     0.000000000000000    -0.001130835650000     0.000000000000000
    -0.000000000000000     0.000000000000000    -0.000012131110000
5 3
    -0.003337496570000     0.003822260530000    -0.000000000000000
     0.003822260530000    -0.007751058630000    -0.000000000000000
    -0.000000000000000    -0.000000000000000    -0.000012131110000
5 4
    -0.003337496570000    -0.003822260530000    -0.000000000000000
    -0.003822260530000    -0.007751058630000     0.000000000000000
    -0.000000000000000     0.000000000000000    -0.000012131110000
5 5
    62.871995440929993    -0.000014653420000     0.000000000000000
    -0.000014653420000    62.872013937870001    -0.000000000000000
     0.000000000000000    -0.000000000000000    14.406502426179999
5 6
    -9.150258695420000    -0.000001080990000     0.000000000000000
    -0.000001080990000     4.436765750570000     0.000000000000000
     0.000000000000000     0.000000000000000     0.786329902280000
5 7
     1.040005825580000     5.883355817039999    -0.000000000000000
     5.883355817039999    -5.753504655820000    -0.000000000000000
    -0.000000000000000    -0.000000000000000     0.786329902280000
5 8
     1.040011350640000    -5.883353054510000    -0.000000000000000
    -5.883353054510000    -5.753504655820000    -0.000000000000000
    -0.000000000000000    -0.000000000000000     0.786329902280000
5 9
     0.009509949470000    -0.000000000000000    -0.000000000000000
    -0.000000000000000     0.009509949470000     0.000000000000000
    -0.000000000000000     0.000000000000000    -0.006213650630000
5 10
    -0.013563181530000    -0.000000000000000    -0.000000000000000
    -0.000000000000000     0.001749642370000     0.000885450920000
    -0.000000000000000     0.000885450920000     0.003742507490000
5 11
    -0.002078623660000     0.006630672550000    -0.000766902350000
     0.006630672550000    -0.009735035610000    -0.000442725460000
    -0.000766902350000    -0.000442725460000     0.003742507490000
5 12
    -0.002078503550000    -0.006630672550000     0.000766902350000
    -0.006630672550000    -0.009735035610000    -0.000442725460000
     0.000766902350000    -0.000442725460000     0.003742507490000
5 13
     0.009509949470000    -0.000000000000000     0.000000000000000
    -0.000000000000000     0.009509949470000    -0.000000000000000
     0.000000000000000    -0.000000000000000    -0.006213650630000
5 14
    -0.013563181530000    -0.000000000000000     0.000000000000000
    -0.000000000000000     0.001749642370000    -0.000885450920000
     0.000000000000000    -0.000885450920000     0.003742507490000
5 15
    -0.002078623660000     0.006630672550000     0.000766902350000
     0.006630672550000    -0.009735035610000     0.000442725460000
     0.000766902350000     0.000442725460000     0.003742507490000
5 16
    -0.002078503550000    -0.006630672550000    -0.000766902350000
    -0.006630672550000    -0.009735035610000     0.000442725460000
    -0.000766902350000     0.000442725460000     0.003742507490000
5 17
    -0.009049327620000    -0.000000000000000    -0.000000000000000
    -0.000000000000000     0.002437512340000     0.000000000000000
    -0.000000000000000     0.000000000000000    -0.000553947320000
5 18
    -0.003288011250000     0.000000000000000    -0.000000000000000
     0.000000000000000    -0.003288011250000     0.000000000000000