       N       E                     dE             d eps       ncg     rms          rms(c)
DAV:   1    -0.187118871814E+04   -0.18712E+04   -0.89773E+04  2624   0.938E+02
DAV:   2    -0.257938440661E+04   -0.70820E+03   -0.65453E+03  2128   0.290E+02
DAV:   3    -0.262119705803E+04   -0.41813E+02   -0.41104E+02  2816   0.644E+01
DAV:   4    -0.262276160141E+04   -0.15645E+01   -0.15510E+01  2992   0.122E+01
DAV:   5    -0.262282175180E+04   -0.60150E-01   -0.59938E-01  2736   0.215E+00    0.130E+02
RMM:   6    -0.124064498380E+04    0.13822E+04   -0.38847E+02  1792   0.502E+01    0.770E+01
RMM:   7    -0.305724133397E+03    0.93492E+03   -0.15530E+03  1802   0.838E+01    0.247E+01
RMM:   8    -0.314645624899E+03   -0.89215E+01   -0.44210E+01  1792   0.177E+01    0.131E+01
RMM:   9    -0.294748570236E+03    0.19897E+02   -0.72708E+01  1792   0.156E+01    0.240E+00
RMM:  10    -0.295458273071E+03   -0.70970E+00   -0.18706E+00  1796   0.349E+00    0.244E+00
RMM:  11    -0.295249000721E+03    0.20927E+00   -0.11510E+00  1792   0.235E+00    0.533E-01
RMM:  12    -0.295311203553E+03   -0.62203E-01   -0.77074E-02  1797   0.784E-01    0.234E-01
RMM:  13    -0.295312356491E+03   -0.11529E-02   -0.60590E-03  1792   0.203E-01    0.756E-02
RMM:  14    -0.295312662975E+03   -0.30648E-03   -0.65821E-04  1792   0.680E-02    0.270E-02
RMM:  15    -0.295312687977E+03   -0.25003E-04   -0.80682E-05  1793   0.247E-02    0.954E-03
RMM:  16    -0.295312695197E+03   -0.72192E-05   -0.93037E-06  1686   0.938E-03    0.204E-03
RMM:  17    -0.295312695952E+03   -0.75592E-06   -0.66504E-07  1284   0.229E-03
   1 F= -.89905091E+02 E0= -.89905091E+02  d E =0.000000E+00  mag=    -0.0000
 Linear response reoptimize wavefunctions
DAV:   1    -0.295312695924E+03   -0.20541E+03   -0.33619E-07  2336   0.150E-03
DAV:   2    -0.295312695926E+03   -0.23388E-08   -0.16906E-08  1776   0.294E-04
DAV:   3    -0.295312695925E+03    0.53842E-09   -0.68950E-10  1760   0.775E-05
 Linear response DOF=            4
 Linear response progress:
  Degree of freedom:   1/  4
       N       E                     dE             d eps       ncg     rms          rms(c)
RMM:   1    -0.156511427021E+00   -0.15651E+00    0.29726E-02 11948   0.955E-01
RMM:   2    -0.128700780595E+00    0.27811E-01   -0.71954E-03  6921   0.209E-01    0.247E-01
RMM:   3    -0.127955073475E+00    0.74571E-03   -0.20848E-03  7871   0.859E-02    0.114E-01
RMM:   4    -0.128344372926E+00   -0.38930E-03   -0.18846E-04  8300   0.369E-02    0.420E-02
RMM:   5    -0.128612383646E+00   -0.26801E-03    0.65661E-05  8433   0.181E-02    0.815E-03
RMM:   6    -0.128609378274E+00    0.30054E-05   -0.15485E-04  8789   0.102E-02    0.148E-03
RMM:   7    -0.128602277943E+00    0.71003E-05   -0.12300E-04  8953   0.949E-03    0.532E-04
RMM:   8    -0.128598199993E+00    0.40779E-05   -0.10721E-04  8921   0.946E-03    0.206E-04
 Linear response progress:
  Degree of freedom:   2/  4
       N       E                     dE             d eps       ncg     rms          rms(c)
RMM:   1    -0.125360045907E+00   -0.12536E+00    0.56040E-03  3649   0.691E-01
RMM:   2    -0.122604750180E+00    0.27553E-02   -0.24838E-03  2836   0.119E-01    0.171E-01
RMM:   3    -0.122447215819E+00    0.15753E-03   -0.41013E-04  2836   0.447E-02    0.904E-02
RMM:   4    -0.122640283856E+00   -0.19307E-03   -0.33269E-04  2928   0.391E-02    0.146E-02
RMM:   5    -0.122507379374E+00    0.13290E-03   -0.99061E-05  3407   0.139E-02    0.236E-03
RMM:   6    -0.122498010778E+00    0.93686E-05   -0.89923E-05  3549   0.106E-02    0.689E-04
RMM:   7    -0.122490633244E+00    0.73775E-05   -0.89271E-05  3575   0.104E-02    0.270E-04
RMM:   8    -0.122490548739E+00    0.84505E-07   -0.90241E-05  3584   0.104E-02    0.157E-04
 Linear response progress:
  Degree of freedom:   3/  4
       N       E                     dE             d eps       ncg     rms          rms(c)
RMM:   1    -0.156441339273E+00   -0.15644E+00    0.30644E-02 11914   0.956E-01
RMM:   2    -0.128458963461E+00    0.27982E-01   -0.61358E-03  6964   0.209E-01    0.247E-01
RMM:   3    -0.127918229306E+00    0.54073E-03   -0.30070E-03  7868   0.861E-02    0.114E-01
RMM:   4    -0.128228122076E+00   -0.30989E-03   -0.26105E-04  8295   0.368E-02    0.420E-02
RMM:   5    -0.128489328427E+00   -0.26121E-03    0.61082E-05  8486   0.179E-02    0.814E-03
RMM:   6    -0.128480746854E+00    0.85816E-05   -0.12598E-04  8796   0.982E-03    0.150E-03
RMM:   7    -0.128458084471E+00    0.22662E-04    0.48357E-05  8947   0.907E-03    0.527E-04
RMM:   8    -0.128452801119E+00    0.52834E-05    0.65113E-05  8925   0.904E-03    0.194E-04
 Linear response progress:
  Degree of freedom:   4/  4
       N       E                     dE             d eps       ncg     rms          rms(c)
RMM:   1    -0.125489998538E+00   -0.12549E+00    0.50446E-03  3660   0.691E-01
RMM:   2    -0.122707222144E+00    0.27828E-02   -0.24251E-03  2809   0.119E-01    0.171E-01
RMM:   3    -0.122547099408E+00    0.16012E-03   -0.39157E-04  2802   0.448E-02    0.903E-02
RMM:   4    -0.122739156609E+00   -0.19206E-03   -0.31693E-04  2888   0.391E-02    0.146E-02
RMM:   5    -0.122610164521E+00    0.12899E-03   -0.77904E-05  3392   0.133E-02    0.238E-03
RMM:   6    -0.122600961661E+00    0.92029E-05   -0.71010E-05  3574   0.993E-03    0.643E-04
RMM:   7    -0.122593963135E+00    0.69985E-05   -0.68157E-05  3584   0.973E-03    0.254E-04
RMM:   8    -0.122595309019E+00   -0.13459E-05   -0.70389E-05  3594   0.973E-03    0.134E-04
 Linear response finished
