 vasp.5.4.4.18Apr17-6-g9f103f2a35 (build Jul  5 2023 12:24:19) complex           
 executed on NVIDIA22.7_CrayMPICH date 2023.10.17  09:01:38
 running on   16 total cores
 distrk:  each k-point on   16 cores,    1 groups
 distr:  one band on NCORES_PER_BAND=   1 cores,   16 groups


--------------------------------------------------------------------------------------------------------


 INCAR:
 POTCAR:   PAW_PBE C 08Apr2002                    

 ----------------------------------------------------------------------------- 
|                                                                             |
|           W    W    AA    RRRRR   N    N  II  N    N   GGGG   !!!           |
|           W    W   A  A   R    R  NN   N  II  NN   N  G    G  !!!           |
|           W    W  A    A  R    R  N N  N  II  N N  N  G       !!!           |
|           W WW W  AAAAAA  RRRRR   N  N N  II  N  N N  G  GGG   !            |
|           WW  WW  A    A  R   R   N   NN  II  N   NN  G    G                |
|           W    W  A    A  R    R  N    N  II  N    N   GGGG   !!!           |
|                                                                             |
|      For optimal performance we recommend to set                            |
|        NCORE= 4 - approx SQRT( number of cores)                             |
|      NCORE specifies how many cores store one orbital (NPAR=cpu/NCORE).     |
|      This setting can  greatly improve the performance of VASP for DFT.     |
|      The default,   NCORE=1            might be grossly inefficient         |
|      on modern multi-core architectures or massively parallel machines.     |
|      Do your own testing !!!!                                               |
|      Unfortunately you need to use the default for GW and RPA calculations. |
|      (for HF NCORE is supported but not extensively tested yet)             |
|                                                                             |
 ----------------------------------------------------------------------------- 

 POTCAR:   PAW_PBE C 08Apr2002                    
  local pseudopotential read in
  atomic valenz-charges read in
  non local Contribution for L=            0  read in
    real space projection operators read in
  non local Contribution for L=            0  read in
    real space projection operators read in
  non local Contribution for L=            1  read in
    real space projection operators read in
  non local Contribution for L=            1  read in
    real space projection operators read in
    PAW grid and wavefunctions read in
 
   number of l-projection  operators is LMAX  =            4
   number of lm-projection operators is LMMAX =            8
 

 ----------------------------------------------------------------------------- 
|                                                                             |
|  ADVICE TO THIS USER RUNNING 'VASP/VAMP'   (HEAR YOUR MASTER'S VOICE ...):  |
|                                                                             |
|      You have a (more or less) 'large supercell' and for larger cells       |
|      it might be more efficient to use real space projection operators      |
|      So try LREAL= Auto  in the INCAR   file.                               |
|      Mind: If you want to do a very accurate calculations keep the          |
|      reciprocal projection scheme          (i.e. LREAL=.FALSE.)             |
|                                                                             |
 ----------------------------------------------------------------------------- 

 PAW_PBE C 08Apr2002                    :
 energy of atom  1       EATOM= -147.1560
 kinetic energy error for atom=    0.0288 (will be added to EATOM!!)
 
 
 POSCAR: generated by phonopy                    
  positions in direct lattice
  No initial velocities read in
 exchange correlation table for  LEXCH =        8
   RHO(1)=    0.500       N(1)  =     2000
   RHO(2)=  100.500       N(2)  =     4000
 


--------------------------------------------------------------------------------------------------------


 ion  position               nearest neighbor table
   1  0.000  0.000  0.125-  19 1.42  20 1.42  17 1.42
   2  0.500  0.000  0.125-  20 1.42  19 1.42  18 1.42
   3  0.000  0.500  0.125-  17 1.42  18 1.42  19 1.42
   4  0.500  0.500  0.125-  18 1.42  17 1.42  20 1.42
   5  0.000  0.000  0.625-  23 1.42  24 1.42  21 1.42
   6  0.500  0.000  0.625-  24 1.42  23 1.42  22 1.42
   7  0.000  0.500  0.625-  21 1.42  22 1.42  23 1.42
   8  0.500  0.500  0.625-  22 1.42  21 1.42  24 1.42
   9  0.000  0.000  0.375-  26 1.42  25 1.42  28 1.42
  10  0.500  0.000  0.375-  25 1.42  26 1.42  27 1.42
  11  0.000  0.500  0.375-  28 1.42  27 1.42  26 1.42
  12  0.500  0.500  0.375-  27 1.42  28 1.42  25 1.42
  13  0.000  0.000  0.875-  30 1.42  29 1.42  32 1.42
  14  0.500  0.000  0.875-  29 1.42  30 1.42  31 1.42
  15  0.000  0.500  0.875-  32 1.42  31 1.42  30 1.42
  16  0.500  0.500  0.875-  31 1.42  32 1.42  29 1.42
  17  0.167  0.333  0.125-   3 1.42   4 1.42   1 1.42
  18  0.667  0.333  0.125-   4 1.42   3 1.42   2 1.42
  19  0.167  0.833  0.125-   1 1.42   2 1.42   3 1.42
  20  0.667  0.833  0.125-   2 1.42   1 1.42   4 1.42
  21  0.167  0.333  0.625-   7 1.42   8 1.42   5 1.42
  22  0.667  0.333  0.625-   8 1.42   7 1.42   6 1.42
  23  0.167  0.833  0.625-   5 1.42   6 1.42   7 1.42
  24  0.667  0.833  0.625-   6 1.42   5 1.42   8 1.42
  25  0.333  0.167  0.375-  10 1.42   9 1.42  12 1.42
  26  0.833  0.167  0.375-   9 1.42  10 1.42  11 1.42
  27  0.333  0.667  0.375-  12 1.42  11 1.42  10 1.42
  28  0.833  0.667  0.375-  11 1.42  12 1.42   9 1.42
  29  0.333  0.167  0.875-  14 1.42  13 1.42  16 1.42
  30  0.833  0.167  0.875-  13 1.42  14 1.42  15 1.42
  31  0.333  0.667  0.875-  16 1.42  15 1.42  14 1.42
  32  0.833  0.667  0.875-  15 1.42  16 1.42  13 1.42
 
  LATTYP: Found a hexagonal cell.
 ALAT       =     4.9345820464
 C/A-ratio  =     3.1626074616
  
  Lattice vectors:
  
 A1 = (   4.9345820000,   0.0000000000,   0.0000000000)
 A2 = (  -2.4672920000,   4.2734740000,   0.0000000000)
 A3 = (   0.0000000000,   0.0000000000,  15.6061460000)


Analysis of symmetry for initial positions (statically):
=====================================================================
 Subroutine PRICEL returns following result:
 
  LATTYP: Found a hexagonal cell.
 ALAT       =     2.4672910232
 C/A-ratio  =     3.1626074616
  
  Lattice vectors:
  
 A1 = (   2.4672910000,   0.0000000000,   0.0000000000)
 A2 = (  -1.2336460000,   2.1367370000,   0.0000000000)
 A3 = (   0.0000000000,   0.0000000000,   7.8030730000)
 
   8 primitive cells build up your supercell.
 

 Routine SETGRP: Setting up the symmetry group for a 
 hexagonal supercell.


 Subroutine GETGRP returns: Found 24 space group operations
 (whereof 12 operations were pure point group operations)
 out of a pool of 24 trial point group operations.


The static configuration has the point symmetry D_3d.
 The point group associated with its full space group is D_6h.


Analysis of symmetry for dynamics (positions and initial velocities):
=====================================================================
 Subroutine PRICEL returns following result:
 
  LATTYP: Found a hexagonal cell.
 ALAT       =     2.4672910232
 C/A-ratio  =     3.1626074616
  
  Lattice vectors:
  
 A1 = (   2.4672910000,   0.0000000000,   0.0000000000)
 A2 = (  -1.2336460000,   2.1367370000,   0.0000000000)
 A3 = (   0.0000000000,   0.0000000000,   7.8030730000)
 
   8 primitive cells build up your supercell.
 

 Routine SETGRP: Setting up the symmetry group for a 
 hexagonal supercell.


 Subroutine GETGRP returns: Found 24 space group operations
 (whereof 12 operations were pure point group operations)
 out of a pool of 24 trial point group operations.


The dynamic configuration has the point symmetry D_3d.
 The point group associated with its full space group is D_6h.


Analysis of structural, dynamic, and magnetic symmetry:
=====================================================================
 Subroutine PRICEL returns following result:
 
  LATTYP: Found a hexagonal cell.
 ALAT       =     2.4672910232
 C/A-ratio  =     3.1626074616
  
  Lattice vectors:
  
 A1 = (   2.4672910000,   0.0000000000,   0.0000000000)
 A2 = (  -1.2336460000,   2.1367370000,   0.0000000000)
 A3 = (   0.0000000000,   0.0000000000,   7.8030730000)
 
   8 primitive cells build up your supercell.
 

 Routine SETGRP: Setting up the symmetry group for a 
 hexagonal supercell.


 Subroutine GETGRP returns: Found 24 space group operations
 (whereof 12 operations were pure point group operations)
 out of a pool of 24 trial point group operations.


The magnetic configuration has the point symmetry D_3d.
 The point group associated with its full space group is D_6h.


 Subroutine INISYM returns: Found 24 space group operations
 (whereof 12 operations are pure point group operations),
 and found     8 'primitive' translations

 
 
 KPOINTS: kpt_density=500                         

Automatic generation of k-mesh.
Space group operators:
 irot       det(A)        alpha          n_x          n_y          n_z        tau_x        tau_y        tau_z
    1     1.000000     0.000000     1.000000     0.000000     0.000000     0.000000     0.000000     0.000000
    2    -1.000000     0.000000     1.000000     0.000000     0.000000     0.000000     0.000000     0.000000
    3     1.000000   120.000000     0.000000     0.000000    -1.000000     0.000000     0.000000     0.000000
    4    -1.000000   120.000000     0.000000     0.000000    -1.000000     0.000000     0.000000     0.000000
    5     1.000000   120.000000     0.000000     0.000000     1.000000     0.000000     0.000000     0.000000
    6    -1.000000   120.000000     0.000000     0.000000     1.000000     0.000000     0.000000     0.000000
    7     1.000000   180.000000     1.000000     0.000000     0.000000     0.000000     0.000000     0.000000
    8    -1.000000   180.000000     1.000000     0.000000     0.000000     0.000000     0.000000     0.000000
    9     1.000000   179.999999     0.500000    -0.866025     0.000000     0.000000     0.000000     0.000000
   10    -1.000000   179.999999     0.500000    -0.866025     0.000000     0.000000     0.000000     0.000000
   11     1.000000   180.000000    -0.500000    -0.866025     0.000000     0.000000     0.000000     0.000000
   12    -1.000000   180.000000    -0.500000    -0.866025     0.000000     0.000000     0.000000     0.000000
   13     1.000000    60.000000     0.000000     0.000000    -1.000000     0.000000     0.000000     0.250000
   14    -1.000000    60.000000     0.000000    -0.000000    -1.000000     0.000000     0.000000     0.250000
   15     1.000000   180.000000     0.000000     0.000000     1.000000     0.000000     0.000000     0.250000
   16    -1.000000   180.000000     0.000000     0.000000     1.000000     0.000000     0.000000     0.250000
   17     1.000000    60.000000     0.000000     0.000000     1.000000     0.000000     0.000000     0.250000
   18    -1.000000    60.000000     0.000000     0.000000     1.000000     0.000000     0.000000     0.250000
   19     1.000000   180.000000     0.866026    -0.500000     0.000000     0.000000     0.000000     0.250000
   20    -1.000000   180.000000     0.866026    -0.500000     0.000000     0.000000     0.000000     0.250000
   21     1.000000   180.000000     0.000000     1.000000     0.000000     0.000000     0.000000     0.250000
   22    -1.000000   180.000000     0.000000     1.000000     0.000000     0.000000     0.000000     0.250000
   23     1.000000   180.000000     0.866025     0.500000     0.000000     0.000000     0.000000     0.250000
   24    -1.000000   180.000000     0.866025     0.500000     0.000000     0.000000     0.000000     0.250000
 
 Subroutine IBZKPT returns following result:
 ===========================================
 
 Found      4 irreducible k-points:
 
 Following reciprocal coordinates:
            Coordinates               Weight
  0.000000  0.000000  0.000000      1.000000
  0.250000  0.000000  0.000000      6.000000
  0.500000  0.000000  0.000000      3.000000
  0.250000  0.250000  0.000000      6.000000
 
 Following cartesian coordinates:
            Coordinates               Weight
  0.000000  0.000000  0.000000      1.000000
  0.050663  0.029250  0.000000      6.000000
  0.101326  0.058500  0.000000      3.000000
  0.050663  0.087751  0.000000      6.000000
 
 TETIRR: Found     10 inequivalent tetrahedra from       96
 
 Subroutine IBZKPT_HF returns following result:
 ==============================================
 
 Found     16 k-points in 1st BZ
 the following     16 k-points will be used (e.g. in the exchange kernel)
 Following reciprocal coordinates:   # in IRBZ
  0.000000  0.000000  0.000000    0.06250000   1 t-inv F
  0.250000  0.000000  0.000000    0.06250000   2 t-inv F
  0.500000  0.000000  0.000000    0.06250000   3 t-inv F
  0.250000  0.250000  0.000000    0.06250000   4 t-inv F
 -0.250000 -0.000000 -0.000000    0.06250000   2 t-inv F
 -0.250000  0.250000  0.000000    0.06250000   2 t-inv F
  0.250000 -0.250000 -0.000000    0.06250000   2 t-inv F
  0.000000 -0.250000  0.000000    0.06250000   2 t-inv F
 -0.000000  0.250000 -0.000000    0.06250000   2 t-inv F
 -0.500000  0.500000  0.000000    0.06250000   3 t-inv F
  0.000000 -0.500000  0.000000    0.06250000   3 t-inv F
 -0.250000 -0.250000 -0.000000    0.06250000   4 t-inv F
 -0.500000  0.250000  0.000000    0.06250000   4 t-inv F
  0.500000 -0.250000 -0.000000    0.06250000   4 t-inv F
  0.250000 -0.500000  0.000000    0.06250000   4 t-inv F
 -0.250000  0.500000 -0.000000    0.06250000   4 t-inv F


--------------------------------------------------------------------------------------------------------




 Dimension of arrays:
   k-points           NKPTS =      4   k-points in BZ     NKDIM =      4   number of bands    NBANDS=    112
   number of dos      NEDOS =    301   number of ions     NIONS =     32
   non local maximal  LDIM  =      4   non local SUM 2l+1 LMDIM =      8
   total plane-waves  NPLWV = 110592
   max r-space proj   IRMAX =      1   max aug-charges    IRDMAX=  31921
   dimension x,y,z NGX =    32 NGY =   32 NGZ =  108
   dimension x,y,z NGXF=    64 NGYF=   64 NGZF=  216
   support grid    NGXF=   128 NGYF=  128 NGZF=  432
   ions per type =              32
   NGX,Y,Z   is equivalent  to a cutoff of  10.78, 10.78, 11.50 a.u.
   NGXF,Y,Z  is equivalent  to a cutoff of  21.56, 21.56, 23.01 a.u.

 SYSTEM =  unknown system                          
 POSCAR =  generated by phonopy                    

 Startparameter for this run:
   NWRITE =      0    write-flag & timer
   PREC   = accura    normal or accurate (medium, high low for compatibility)
   ISTART =      0    job   : 0-new  1-cont  2-samecut
   ICHARG =      0    charge: 1-file 2-atom 10-const
   ISPIN  =      2    spin polarized calculation?
   LNONCOLLINEAR =      F non collinear calculations
   LSORBIT =      F    spin-orbit coupling
   INIWAV =      1    electr: 0-lowe 1-rand  2-diag
   LASPH  =      F    aspherical Exc in radial PAW
   METAGGA=      F    non-selfconsistent MetaGGA calc.

 Electronic Relaxation 1
   ENCUT  =  400.0 eV  29.40 Ry    5.42 a.u.   8.05  8.05 25.45*2*pi/ulx,y,z
   ENINI  =  400.0     initial cutoff
   ENAUG  =  644.9 eV  augmentation charge cutoff
   NELM   =     60;   NELMIN=  2; NELMDL= -5     # of ELM steps 
   EDIFF  = 0.1E-05   stopping-criterion for ELM
   LREAL  =      F    real-space projection
   NLSPLINE    = F    spline interpolate recip. space projectors
   LCOMPAT=      F    compatible to vasp.4.4
   GGA_COMPAT  = T    GGA compatible to vasp.4.4-vasp.4.6
   LMAXPAW     = -100 max onsite density
   LMAXMIX     =    2 max onsite mixed and CHGCAR
   VOSKOWN=      0    Vosko Wilk Nusair interpolation
   ROPT   =    0.00000
 Ionic relaxation
   EDIFFG = 0.1E-03   stopping-criterion for IOM
   NSW    =      1    number of steps for IOM
   NBLOCK =      1;   KBLOCK =      1    inner block; outer block 
   IBRION =      8    ionic relax: 0-MD 1-quasi-New 2-CG
   NFREE  =      0    steps in history (QN), initial steepest desc. (CG)
   ISIF   =      3    stress and relaxation
   IWAVPR =     11    prediction:  0-non 1-charg 2-wave 3-comb
   ISYM   =      2    0-nonsym 1-usesym 2-fastsym
   LCORR  =      T    Harris-Foulkes like correction to forces

   POTIM  = 0.0150    time-step for ionic-motion
   TEIN   =    0.0    initial temperature
   TEBEG  =    0.0;   TEEND  =   0.0 temperature during run
   SMASS  =  -3.00    Nose mass-parameter (am)
   estimated Nose-frequenzy (Omega)   =  0.10E-29 period in steps =****** mass=  -0.556E-27a.u.
   SCALEE = 1.0000    scale energy and forces
   NPACO  =    256;   APACO  = 16.0  distance and # of slots for P.C.
   PSTRESS= 1000.0 pullay stress

  Mass of Ions in am
   POMASS =  12.01
  Ionic Valenz
   ZVAL   =   4.00
  Atomic Wigner-Seitz radii
   RWIGS  =  -1.00
  virtual crystal weights 
   VCA    =   1.00
   NELECT =     128.0000    total number of electrons
   NUPDOWN=      -1.0000    fix difference up-down

 DOS related values:
   EMIN   =  10.00;   EMAX   =-10.00  energy-range for DOS
   EFERMI =   0.00
   ISMEAR =    -5;   SIGMA  =   0.01  broadening in eV -4-tet -1-fermi 0-gaus

 Electronic relaxation 2 (details)
   IALGO  =     68    algorithm
   LDIAG  =      T    sub-space diagonalisation (order eigenvalues)
   LSUBROT=      F    optimize rotation matrix (better conditioning)
   TURBO    =      0    0=normal 1=particle mesh
   IRESTART =      0    0=no restart 2=restart with 2 vectors
   NREBOOT  =      0    no. of reboots
   NMIN     =      0    reboot dimension
   EREF     =   0.00    reference energy to select bands
   IMIX   =      4    mixing-type and parameters
     AMIX     =   0.40;   BMIX     =  1.00
     AMIX_MAG =   1.60;   BMIX_MAG =  1.00
     AMIN     =   0.10
     WC   =   100.;   INIMIX=   1;  MIXPRE=   1;  MAXMIX= -45

 Intra band minimization:
   WEIMIN = 0.0010     energy-eigenvalue tresh-hold
   EBREAK =  0.22E-08  absolut break condition
   DEPER  =   0.30     relativ break condition  

   TIME   =   0.40     timestep for ELM

  volume/ion in A,a.u.               =      10.28        69.40
  Fermi-wavevector in a.u.,A,eV,Ry     =   1.195003  2.258229 19.429568  1.428033
  Thomas-Fermi vector in A             =   2.330980
 
 Write flags
   LWAVE        =      F    write WAVECAR
   LDOWNSAMPLE  =      F    k-point downsampling of WAVECAR
   LCHARG       =      F    write CHGCAR
   LVTOT        =      F    write LOCPOT, total local potential
   LVHAR        =      F    write LOCPOT, Hartree potential only
   LELF         =      F    write electronic localiz. function (ELF)
   LORBIT       =     11    0 simple, 1 ext, 2 COOP (PROOUT), +10 PAW based schemes


 Dipole corrections
   LMONO  =      F    monopole corrections only (constant potential shift)
   LDIPOL =      F    correct potential (dipole corrections)
   IDIPOL =      0    1-x, 2-y, 3-z, 4-all directions 
   EPSILON=  1.0000000 bulk dielectric constant

 Exchange correlation treatment:
   GGA     =    --    GGA type
   LEXCH   =     8    internal setting for exchange type
   VOSKOWN=      0    Vosko Wilk Nusair interpolation
   LHFCALC =     F    Hartree Fock is set to
   LHFONE  =     F    Hartree Fock one center treatment
   AEXX    =    0.0000 exact exchange contribution

 Linear response parameters
   LEPSILON=     F    determine dielectric tensor
   LRPA    =     F    only Hartree local field effects (RPA)
   LNABLA  =     F    use nabla operator in PAW spheres
   LVEL    =     F    velocity operator in full k-point grid
   LINTERFAST=   F  fast interpolation
   KINTER  =     0    interpolate to denser k-point grid
   CSHIFT  =0.1000    complex shift for real part using Kramers Kronig
   OMEGAMAX=  -1.0    maximum frequency
   DEG_THRESHOLD= 0.2000000E-02 threshold for treating states as degnerate
   RTIME   =   -0.100 relaxation time in fs
  (WPLASMAI=    0.000 imaginary part of plasma frequency in eV, 0.658/RTIME)
   DFIELD  = 0.0000000 0.0000000 0.0000000 field for delta impulse in time
 
 Orbital magnetization related:
   ORBITALMAG=     F  switch on orbital magnetization
   LCHIMAG   =     F  perturbation theory with respect to B field
   DQ        =  0.001000  dq finite difference perturbation B field
   LLRAUG    =     F  two centre corrections for induced B field



--------------------------------------------------------------------------------------------------------


 linear response using symmetry
 charge density and potential will be updated during run
 spin polarized calculation
 RMM-DIIS sequential band-by-band and
  variant of blocked Davidson during initial phase
 perform sub-space diagonalisation
    before iterative eigenvector-optimisation
 modified Broyden-mixing scheme, WC =      100.0
 initial mixing is a Kerker type mixing with AMIX =  0.4000 and BMIX =      1.0000
 Hartree-type preconditioning will be used
 using additional bands            48
 reciprocal scheme for non local part
 calculate Harris-corrections to forces 
   (improved forces if not selfconsistent)
 use gradient corrections 
 use of overlap-Matrix (Vanderbilt PP)
 Fermi weights with tetrahedron method with Bloechl corrections


--------------------------------------------------------------------------------------------------------


  energy-cutoff  :      400.00
  volume of cell :      329.10
      direct lattice vectors                 reciprocal lattice vectors
     4.934582000  0.000000000  0.000000000     0.202651410  0.117000876 -0.000000000
    -2.467292000  4.273474000  0.000000000     0.000000000  0.234001658  0.000000000
     0.000000000  0.000000000 15.606146000     0.000000000 -0.000000000  0.064077319

  length of vectors
     4.934582000  4.934583046 15.606146000     0.234001707  0.234001658  0.064077319


 
 k-points in units of 2pi/SCALE and weight: kpt_density=500                         
   0.00000000  0.00000000  0.00000000       0.063
   0.05066285  0.02925022  0.00000000       0.375
   0.10132570  0.05850044  0.00000000       0.188
   0.05066285  0.08775063  0.00000000       0.375
 
 k-points in reciprocal lattice and weights: kpt_density=500                         
   0.00000000  0.00000000  0.00000000       0.063
   0.25000000  0.00000000  0.00000000       0.375
   0.50000000  0.00000000  0.00000000       0.188
   0.25000000  0.25000000  0.00000000       0.375
 
 position of ions in fractional coordinates (direct lattice) 
   0.00000000  0.00000000  0.12500000
   0.50000000  0.00000000  0.12500000
   0.00000000  0.50000000  0.12500000
   0.50000000  0.50000000  0.12500000
   0.00000000  0.00000000  0.62500000
   0.50000000  0.00000000  0.62500000
   0.00000000  0.50000000  0.62500000
   0.50000000  0.50000000  0.62500000
   0.00000000  0.00000000  0.37500000
   0.50000000  0.00000000  0.37500000
   0.00000000  0.50000000  0.37500000
   0.50000000  0.50000000  0.37500000
   0.00000000  0.00000000  0.87500000
   0.50000000  0.00000000  0.87500000
   0.00000000  0.50000000  0.87500000
   0.50000000  0.50000000  0.87500000
   0.16666650  0.33333350  0.12500000
   0.66666650  0.33333350  0.12500000
   0.16666650  0.83333350  0.12500000
   0.66666650  0.83333350  0.12500000
   0.16666650  0.33333350  0.62500000
   0.66666650  0.33333350  0.62500000
   0.16666650  0.83333350  0.62500000
   0.66666650  0.83333350  0.62500000
   0.33333350  0.16666650  0.37500000
   0.83333350  0.16666650  0.37500000
   0.33333350  0.66666650  0.37500000
   0.83333350  0.66666650  0.37500000
   0.33333350  0.16666650  0.87500000
   0.83333350  0.16666650  0.87500000
   0.33333350  0.66666650  0.87500000
   0.83333350  0.66666650  0.87500000
 
 position of ions in cartesian coordinates  (Angst):
   0.00000000  0.00000000  1.95076825
   2.46729100  0.00000000  1.95076825
  -1.23364600  2.13673700  1.95076825
   1.23364500  2.13673700  1.95076825
   0.00000000  0.00000000  9.75384125
   2.46729100  0.00000000  9.75384125
  -1.23364600  2.13673700  9.75384125
   1.23364500  2.13673700  9.75384125
   0.00000000  0.00000000  5.85230475
   2.46729100  0.00000000  5.85230475
  -1.23364600  2.13673700  5.85230475
   1.23364500  2.13673700  5.85230475
   0.00000000  0.00000000 13.65537775
   2.46729100  0.00000000 13.65537775
  -1.23364600  2.13673700 13.65537775
   1.23364500  2.13673700 13.65537775
  -0.00000157  1.42449205  1.95076825
   2.46728943  1.42449205  1.95076825
  -1.23364757  3.56122905  1.95076825
   1.23364343  3.56122905  1.95076825
  -0.00000157  1.42449205  9.75384125
   2.46728943  1.42449205  9.75384125
  -1.23364757  3.56122905  9.75384125
   1.23364343  3.56122905  9.75384125
   1.23364657  0.71224495  5.85230475
   3.70093757  0.71224495  5.85230475
   0.00000057  2.84898195  5.85230475
   2.46729157  2.84898195  5.85230475
   1.23364657  0.71224495 13.65537775
   3.70093757  0.71224495 13.65537775
   0.00000057  2.84898195 13.65537775
   2.46729157  2.84898195 13.65537775
 


--------------------------------------------------------------------------------------------------------


 k-point  1 :   0.0000 0.0000 0.0000  plane waves:    5883
 k-point  2 :   0.2500 0.0000 0.0000  plane waves:    5970
 k-point  3 :   0.5000 0.0000 0.0000  plane waves:    6018
 k-point  4 :   0.2500 0.2500 0.0000  plane waves:    6000

 maximum and minimum number of plane-waves per node :      6018     5883

 maximum number of plane-waves:      6018
 maximum index in each direction: 
   IXMAX=    8   IYMAX=    8   IZMAX=   25
   IXMIN=   -8   IYMIN=   -8   IZMIN=  -25


 serial   3D FFT for wavefunctions
 parallel 3D FFT for charge:
    minimum data exchange during FFTs selected (reduces bandwidth)


 total amount of memory used by VASP MPI-rank0    61890. kBytes
=======================================================================

   base      :      30000. kBytes
   nonl-proj :       4632. kBytes
   fftplans  :       8538. kBytes
   grid      :      12890. kBytes
   one-center:        196. kBytes
   wavefun   :       5634. kBytes
 
     INWAV:  cpu time    0.0000: real time    0.0000
 Broyden mixing: mesh for mixing (old mesh)
   NGX = 17   NGY = 17   NGZ = 51
  (NGX  = 64   NGY  = 64   NGZ  =216)
  gives a total of  14739 points

 charge density for first step will be calculated from the start-wavefunctions


--------------------------------------------------------------------------------------------------------


 Maximum index for augmentation-charges          2033 (set IRDMAX)


--------------------------------------------------------------------------------------------------------


 initial charge from wavefunction
 First call to EWALD:  gamma=   0.257
 Maximum number of real-space cells 4x 4x 1
 Maximum number of reciprocal cells 2x 2x 6

    FEWALD:  cpu time    0.0008: real time    0.0008


--------------------------------------- Iteration      1(   1)  ---------------------------------------


    POTLOK:  cpu time    0.0668: real time    0.0692
    SETDIJ:  cpu time    0.0241: real time    0.0241
     EDDAV:  cpu time    1.0319: real time    1.0333
 BZINTS: Fermi energy:-19.485957;128.000000 electrons
         Band energy:***********;  BLOECHL correction:  0.000000
       DOS:  cpu time    0.0016: real time    0.0017
    --------------------------------------------
      LOOP:  cpu time    1.1243: real time    1.1282

 eigenvalue-minimisations  :  2624
 total energy-change (2. order) :-0.1871189E+04  (-0.8977278E+04)
 number of electron     128.0000000 magnetization      -0.0000000
 augmentation part       -0.5133301 magnetization      -0.0067246

 Free energy of the ion-electron system (eV)
  ---------------------------------------------------
  alpha Z        PSCENC =       253.52731049
  Ewald energy   TEWEN  =     -2885.75341591
  -Hartree energ DENC   =        -1.84199267
  -exchange      EXHF   =         0.00000000
  -V(xc)+E(xc)   XCENC  =       356.10620979
  PAW double counting   =       111.72053182     -124.17203124
  entropy T*S    EENTRO =         0.00000000
  eigenvalues    EBANDS =     -4288.84649430
  atomic energy  EATOM  =      4708.07116389
  Solvation  Ediel_sol  =         0.00000000
  ---------------------------------------------------
  free energy    TOTEN  =     -1871.18871814 eV

  energy without entropy =    -1871.18871814  energy(sigma->0) =    -1871.18871814


--------------------------------------------------------------------------------------------------------




--------------------------------------- Iteration      1(   2)  ---------------------------------------


     EDDAV:  cpu time    0.8656: real time    0.8691
 BZINTS: Fermi energy:-24.617824;128.000000 electrons
         Band energy:***********;  BLOECHL correction:  0.000000
       DOS:  cpu time    0.0007: real time    0.0007
    --------------------------------------------
      LOOP:  cpu time    0.8663: real time    0.8698

 eigenvalue-minimisations  :  2128
 total energy-change (2. order) :-0.7081957E+03  (-0.6545264E+03)
 number of electron     128.0000000 magnetization      -0.0000000
 augmentation part       -0.5133301 magnetization      -0.0067246

 Free energy of the ion-electron system (eV)
  ---------------------------------------------------
  alpha Z        PSCENC =       253.52731049
  Ewald energy   TEWEN  =     -2885.75341591
  -Hartree energ DENC   =        -1.84199267
  -exchange      EXHF   =         0.00000000
  -V(xc)+E(xc)   XCENC  =       356.10620979
  PAW double counting   =       111.72053182     -124.17203124
  entropy T*S    EENTRO =         0.00000000
  eigenvalues    EBANDS =     -4997.04218277
  atomic energy  EATOM  =      4708.07116389
  Solvation  Ediel_sol  =         0.00000000
  ---------------------------------------------------
  free energy    TOTEN  =     -2579.38440661 eV

  energy without entropy =    -2579.38440661  energy(sigma->0) =    -2579.38440661


--------------------------------------------------------------------------------------------------------




--------------------------------------- Iteration      1(   3)  ---------------------------------------


     EDDAV:  cpu time    1.0854: real time    1.0862
 BZINTS: Fermi energy:-25.343952;128.000000 electrons
         Band energy:***********;  BLOECHL correction:  0.000000
       DOS:  cpu time    0.0008: real time    0.0008
    --------------------------------------------
      LOOP:  cpu time    1.0862: real time    1.0870

 eigenvalue-minimisations  :  2816
 total energy-change (2. order) :-0.4181265E+02  (-0.4110443E+02)
 number of electron     128.0000000 magnetization      -0.0000000
 augmentation part       -0.5133301 magnetization      -0.0067246

 Free energy of the ion-electron system (eV)
  ---------------------------------------------------
  alpha Z        PSCENC =       253.52731049
  Ewald energy   TEWEN  =     -2885.75341591
  -Hartree energ DENC   =        -1.84199267
  -exchange      EXHF   =         0.00000000
  -V(xc)+E(xc)   XCENC  =       356.10620979
  PAW double counting   =       111.72053182     -124.17203124
  entropy T*S    EENTRO =         0.00000000
  eigenvalues    EBANDS =     -5038.85483419
  atomic energy  EATOM  =      4708.07116389
  Solvation  Ediel_sol  =         0.00000000
  ---------------------------------------------------
  free energy    TOTEN  =     -2621.19705803 eV

  energy without entropy =    -2621.19705803  energy(sigma->0) =    -2621.19705803


--------------------------------------------------------------------------------------------------------




--------------------------------------- Iteration      1(   4)  ---------------------------------------


     EDDAV:  cpu time    1.1448: real time    1.1465
 BZINTS: Fermi energy:-25.367226;128.000000 electrons
         Band energy:***********;  BLOECHL correction:  0.000000
       DOS:  cpu time    0.0008: real time    0.0008
    --------------------------------------------
      LOOP:  cpu time    1.1456: real time    1.1473

 eigenvalue-minimisations  :  2992
 total energy-change (2. order) :-0.1564543E+01  (-0.1550988E+01)
 number of electron     128.0000000 magnetization      -0.0000000
 augmentation part       -0.5133301 magnetization      -0.0067246

 Free energy of the ion-electron system (eV)
  ---------------------------------------------------
  alpha Z        PSCENC =       253.52731049
  Ewald energy   TEWEN  =     -2885.75341591
  -Hartree energ DENC   =        -1.84199267
  -exchange      EXHF   =         0.00000000
  -V(xc)+E(xc)   XCENC  =       356.10620979
  PAW double counting   =       111.72053182     -124.17203124
  entropy T*S    EENTRO =         0.00000000
  eigenvalues    EBANDS =     -5040.41937757
  atomic energy  EATOM  =      4708.07116389
  Solvation  Ediel_sol  =         0.00000000
  ---------------------------------------------------
  free energy    TOTEN  =     -2622.76160141 eV

  energy without entropy =    -2622.76160141  energy(sigma->0) =    -2622.76160141


--------------------------------------------------------------------------------------------------------




--------------------------------------- Iteration      1(   5)  ---------------------------------------


     EDDAV:  cpu time    1.0674: real time    1.0683
 BZINTS: Fermi energy:-25.368858;128.000000 electrons
         Band energy:***********;  BLOECHL correction:  0.000000
       DOS:  cpu time    0.0008: real time    0.0008
    CHARGE:  cpu time    0.0820: real time    0.0820
    MIXING:  cpu time    0.0012: real time    0.0012
    --------------------------------------------
      LOOP:  cpu time    1.1514: real time    1.1523

 eigenvalue-minimisations  :  2736
 total energy-change (2. order) :-0.6015039E-01  (-0.5993850E-01)
 number of electron     128.0000002 magnetization      -0.0000000
 augmentation part        5.6421259 magnetization       0.0015531

 Broyden mixing:
  rms(total) = 0.13017E+02    rms(broyden)= 0.13012E+02
  rms(prec ) = 0.16776E+02
  weight for this iteration     100.00

 Free energy of the ion-electron system (eV)
  ---------------------------------------------------
  alpha Z        PSCENC =       253.52731049
  Ewald energy   TEWEN  =     -2885.75341591
  -Hartree energ DENC   =        -1.84199267
  -exchange      EXHF   =         0.00000000
  -V(xc)+E(xc)   XCENC  =       356.10620979
  PAW double counting   =       111.72053182     -124.17203124
  entropy T*S    EENTRO =         0.00000000
  eigenvalues    EBANDS =     -5040.47952796
  atomic energy  EATOM  =      4708.07116389
  Solvation  Ediel_sol  =         0.00000000
  ---------------------------------------------------
  free energy    TOTEN  =     -2622.82175180 eV

  energy without entropy =    -2622.82175180  energy(sigma->0) =    -2622.82175180


--------------------------------------------------------------------------------------------------------




--------------------------------------- Iteration      1(   6)  ---------------------------------------


    POTLOK:  cpu time    0.0500: real time    0.0523
    SETDIJ:  cpu time    0.0233: real time    0.0233
    EDDIAG:  cpu time    0.1728: real time    0.1729
  RMM-DIIS:  cpu time    0.5031: real time    0.5031
    ORTHCH:  cpu time    0.0234: real time    0.0234
 BZINTS: Fermi energy:-13.736712;128.000000 electrons
         Band energy:***********;  BLOECHL correction:  0.000000
       DOS:  cpu time    0.0008: real time    0.0008
    CHARGE:  cpu time    0.0818: real time    0.0818
    MIXING:  cpu time    0.0013: real time    0.0013
    --------------------------------------------
      LOOP:  cpu time    0.8565: real time    0.8589

 eigenvalue-minimisations  :  1792
 total energy-change (2. order) : 0.1382177E+04  (-0.3884678E+02)
 number of electron     128.0000001 magnetization      -0.0000000
 augmentation part        4.8102832 magnetization      -0.0001915

 Broyden mixing:
  rms(total) = 0.76991E+01    rms(broyden)= 0.76989E+01
  rms(prec ) = 0.10340E+02
  weight for this iteration     100.00

 eigenvalues of (default mixing * dielectric matrix)
  average eigenvalue GAMMA=   2.2001
  2.2001

 Free energy of the ion-electron system (eV)
  ---------------------------------------------------
  alpha Z        PSCENC =       253.52731049
  Ewald energy   TEWEN  =     -2885.75341591
  -Hartree energ DENC   =      -288.12188385
  -exchange      EXHF   =         0.00000000
  -V(xc)+E(xc)   XCENC  =       376.59024151
  PAW double counting   =       874.86425042     -911.32828242
  entropy T*S    EENTRO =         0.00000000
  eigenvalues    EBANDS =     -3368.49436794
  atomic energy  EATOM  =      4708.07116389
  Solvation  Ediel_sol  =         0.00000000
  ---------------------------------------------------
  free energy    TOTEN  =     -1240.64498380 eV

  energy without entropy =    -1240.64498380  energy(sigma->0) =    -1240.64498380


--------------------------------------------------------------------------------------------------------




--------------------------------------- Iteration      1(   7)  ---------------------------------------


    POTLOK:  cpu time    0.0510: real time    0.0517
    SETDIJ:  cpu time    0.0212: real time    0.0212
    EDDIAG:  cpu time    0.1717: real time    0.1717
  RMM-DIIS:  cpu time    0.5098: real time    0.5099
    ORTHCH:  cpu time    0.0233: real time    0.0233
 BZINTS: Fermi energy:  1.949816;128.000000 electrons
         Band energy:-862.477577;  BLOECHL correction:  0.000000
       DOS:  cpu time    0.0008: real time    0.0008
    CHARGE:  cpu time    0.0799: real time    0.0799
    MIXING:  cpu time    0.0013: real time    0.0013
    --------------------------------------------
      LOOP:  cpu time    0.8590: real time    0.8597

 eigenvalue-minimisations  :  1802
 total energy-change (2. order) : 0.9349209E+03  (-0.1553018E+03)
 number of electron     128.0000000 magnetization      -0.0000000
 augmentation part        3.2606568 magnetization       0.0009988

 Broyden mixing:
  rms(total) = 0.24658E+01    rms(broyden)= 0.24586E+01
  rms(prec ) = 0.28269E+01
  weight for this iteration     100.00

 eigenvalues of (default mixing * dielectric matrix)
  average eigenvalue GAMMA=   2.1484
  2.1484  2.1484

 Free energy of the ion-electron system (eV)
  ---------------------------------------------------
  alpha Z        PSCENC =       253.52731049
  Ewald energy   TEWEN  =     -2885.75341591
  -Hartree energ DENC   =     -1929.70155960
  -exchange      EXHF   =         0.00000000
  -V(xc)+E(xc)   XCENC  =       465.23650600
  PAW double counting   =      3016.09606711    -3070.72262814
  entropy T*S    EENTRO =         0.00000000
  eigenvalues    EBANDS =      -862.47757723
  atomic energy  EATOM  =      4708.07116389
  Solvation  Ediel_sol  =         0.00000000
  ---------------------------------------------------
  free energy    TOTEN  =      -305.72413340 eV

  energy without entropy =     -305.72413340  energy(sigma->0) =     -305.72413340


--------------------------------------------------------------------------------------------------------




--------------------------------------- Iteration      1(   8)  ---------------------------------------


    POTLOK:  cpu time    0.0486: real time    0.0510
    SETDIJ:  cpu time    0.0214: real time    0.0214
    EDDIAG:  cpu time    0.1707: real time    0.1707
  RMM-DIIS:  cpu time    0.5071: real time    0.5071
    ORTHCH:  cpu time    0.0237: real time    0.0237
 BZINTS: Fermi energy:  0.382279;128.000000 electrons
         Band energy:***********;  BLOECHL correction:  0.000000
       DOS:  cpu time    0.0006: real time    0.0006
    CHARGE:  cpu time    0.0799: real time    0.0799
    MIXING:  cpu time    0.0014: real time    0.0014
    --------------------------------------------
      LOOP:  cpu time    0.8532: real time    0.8557

 eigenvalue-minimisations  :  1792
 total energy-change (2. order) :-0.8921492E+01  (-0.4420989E+01)
 number of electron     128.0000000 magnetization      -0.0000000
 augmentation part        3.3300641 magnetization      -0.0008596

 Broyden mixing:
  rms(total) = 0.13097E+01    rms(broyden)= 0.13094E+01
  rms(prec ) = 0.17578E+01
  weight for this iteration     100.00

 eigenvalues of (default mixing * dielectric matrix)
  average eigenvalue GAMMA=   1.9966
  0.8929  2.5484  2.5484

 Free energy of the ion-electron system (eV)
  ---------------------------------------------------
  alpha Z        PSCENC =       253.52731049
  Ewald energy   TEWEN  =     -2885.75341591
  -Hartree energ DENC   =     -1681.33028040
  -exchange      EXHF   =         0.00000000
  -V(xc)+E(xc)   XCENC  =       441.39951613
  PAW double counting   =      1988.31060767    -2027.60049522
  entropy T*S    EENTRO =         0.00000000
  eigenvalues    EBANDS =     -1111.27003155
  atomic energy  EATOM  =      4708.07116389
  Solvation  Ediel_sol  =         0.00000000
  ---------------------------------------------------
  free energy    TOTEN  =      -314.64562490 eV

  energy without entropy =     -314.64562490  energy(sigma->0) =     -314.64562490


--------------------------------------------------------------------------------------------------------




--------------------------------------- Iteration      1(   9)  ---------------------------------------


    POTLOK:  cpu time    0.0514: real time    0.0520
    SETDIJ:  cpu time    0.0211: real time    0.0211
    EDDIAG:  cpu time    0.1751: real time    0.1751
  RMM-DIIS:  cpu time    0.5276: real time    0.5276
    ORTHCH:  cpu time    0.0233: real time    0.0233
 BZINTS: Fermi energy:  2.838822;128.000000 electrons
         Band energy:-682.071040;  BLOECHL correction:  0.000000
       DOS:  cpu time    0.0006: real time    0.0006
    CHARGE:  cpu time    0.0800: real time    0.0800
    MIXING:  cpu time    0.0015: real time    0.0015
    --------------------------------------------
      LOOP:  cpu time    0.8805: real time    0.8813

 eigenvalue-minimisations  :  1792
 total energy-change (2. order) : 0.1989705E+02  (-0.7270839E+01)
 number of electron     128.0000000 magnetization      -0.0000000
 augmentation part        3.0562060 magnetization       0.0006492

 Broyden mixing:
  rms(total) = 0.24015E+00    rms(broyden)= 0.23811E+00
  rms(prec ) = 0.27113E+00
  weight for this iteration     100.00

 eigenvalues of (default mixing * dielectric matrix)
  average eigenvalue GAMMA=   1.7455
  2.8806  2.0526  1.3389  0.7098

 Free energy of the ion-electron system (eV)
  ---------------------------------------------------
  alpha Z        PSCENC =       253.52731049
  Ewald energy   TEWEN  =     -2885.75341591
  -Hartree energ DENC   =     -2110.96775265
  -exchange      EXHF   =         0.00000000
  -V(xc)+E(xc)   XCENC  =       462.76144238
  PAW double counting   =      2275.24561700    -2315.56189504
  entropy T*S    EENTRO =         0.00000000
  eigenvalues    EBANDS =      -682.07104039
  atomic energy  EATOM  =      4708.07116389
  Solvation  Ediel_sol  =         0.00000000
  ---------------------------------------------------
  free energy    TOTEN  =      -294.74857024 eV

  energy without entropy =     -294.74857024  energy(sigma->0) =     -294.74857024


--------------------------------------------------------------------------------------------------------




--------------------------------------- Iteration      1(  10)  ---------------------------------------


    POTLOK:  cpu time    0.0503: real time    0.0521
    SETDIJ:  cpu time    0.0211: real time    0.0211
    EDDIAG:  cpu time    0.1705: real time    0.1705
  RMM-DIIS:  cpu time    0.5063: real time    0.5063
    ORTHCH:  cpu time    0.0236: real time    0.0236
 BZINTS: Fermi energy:  2.843830;128.000000 electrons
         Band energy:-681.378864;  BLOECHL correction:  0.000000
       DOS:  cpu time    0.0008: real time    0.0008
    CHARGE:  cpu time    0.0812: real time    0.0812
    MIXING:  cpu time    0.0016: real time    0.0016
    --------------------------------------------
      LOOP:  cpu time    0.8553: real time    0.8571

 eigenvalue-minimisations  :  1796
 total energy-change (2. order) :-0.7097028E+00  (-0.1870645E+00)
 number of electron     128.0000000 magnetization      -0.0000000
 augmentation part        3.0135010 magnetization      -0.0002765

 Broyden mixing:
  rms(total) = 0.24400E+00    rms(broyden)= 0.24381E+00
  rms(prec ) = 0.29191E+00
  weight for this iteration     100.00

 eigenvalues of (default mixing * dielectric matrix)
  average eigenvalue GAMMA=   1.8127
  2.6457  2.6457  2.1750  0.8846  0.7128

 Free energy of the ion-electron system (eV)
  ---------------------------------------------------
  alpha Z        PSCENC =       253.52731049
  Ewald energy   TEWEN  =     -2885.75341591
  -Hartree energ DENC   =     -2111.49392094
  -exchange      EXHF   =         0.00000000
  -V(xc)+E(xc)   XCENC  =       462.88716814
  PAW double counting   =      2301.16540322    -2342.48311765
  entropy T*S    EENTRO =         0.00000000
  eigenvalues    EBANDS =      -681.37886431
  atomic energy  EATOM  =      4708.07116389
  Solvation  Ediel_sol  =         0.00000000
  ---------------------------------------------------
  free energy    TOTEN  =      -295.45827307 eV

  energy without entropy =     -295.45827307  energy(sigma->0) =     -295.45827307


--------------------------------------------------------------------------------------------------------




--------------------------------------- Iteration      1(  11)  ---------------------------------------


    POTLOK:  cpu time    0.0503: real time    0.0511
    SETDIJ:  cpu time    0.0213: real time    0.0213
    EDDIAG:  cpu time    0.1724: real time    0.1724
  RMM-DIIS:  cpu time    0.5037: real time    0.5038
    ORTHCH:  cpu time    0.0233: real time    0.0233
 BZINTS: Fermi energy:  2.514290;128.000000 electrons
         Band energy:-736.485707;  BLOECHL correction:  0.000000
       DOS:  cpu time    0.0006: real time    0.0006
    CHARGE:  cpu time    0.0797: real time    0.0797
    MIXING:  cpu time    0.0017: real time    0.0017
    --------------------------------------------
      LOOP:  cpu time    0.8531: real time    0.8539

 eigenvalue-minimisations  :  1792
 total energy-change (2. order) : 0.2092724E+00  (-0.1150979E+00)
 number of electron     128.0000000 magnetization      -0.0000000
 augmentation part        3.0431501 magnetization      -0.0001673

 Broyden mixing:
  rms(total) = 0.53303E-01    rms(broyden)= 0.53298E-01
  rms(prec ) = 0.63145E-01
  weight for this iteration     100.00

 eigenvalues of (default mixing * dielectric matrix)
  average eigenvalue GAMMA=   1.7255
  2.7841  2.7841  2.1857  0.9712  0.9503  0.6772

 Free energy of the ion-electron system (eV)
  ---------------------------------------------------
  alpha Z        PSCENC =       253.52731049
  Ewald energy   TEWEN  =     -2885.75341591
  -Hartree energ DENC   =     -2053.07212289
  -exchange      EXHF   =         0.00000000
  -V(xc)+E(xc)   XCENC  =       459.79997131
  PAW double counting   =      2237.08966754    -2278.42586815
  entropy T*S    EENTRO =         0.00000000
  eigenvalues    EBANDS =      -736.48570699
  atomic energy  EATOM  =      4708.07116389
  Solvation  Ediel_sol  =         0.00000000
  ---------------------------------------------------
  free energy    TOTEN  =      -295.24900072 eV

  energy without entropy =     -295.24900072  energy(sigma->0) =     -295.24900072


--------------------------------------------------------------------------------------------------------




--------------------------------------- Iteration      1(  12)  ---------------------------------------


    POTLOK:  cpu time    0.0509: real time    0.0516
    SETDIJ:  cpu time    0.0217: real time    0.0217
    EDDIAG:  cpu time    0.1731: real time    0.1731
  RMM-DIIS:  cpu time    0.5051: real time    0.5052
    ORTHCH:  cpu time    0.0232: real time    0.0232
 BZINTS: Fermi energy:  2.595296;128.000000 electrons
         Band energy:-730.818432;  BLOECHL correction:  0.000000
       DOS:  cpu time    0.0007: real time    0.0007
    CHARGE:  cpu time    0.0800: real time    0.0801
    MIXING:  cpu time    0.0019: real time    0.0019
    --------------------------------------------
      LOOP:  cpu time    0.8566: real time    0.8574

 eigenvalue-minimisations  :  1797
 total energy-change (2. order) :-0.6220283E-01  (-0.7707439E-02)
 number of electron     128.0000000 magnetization      -0.0000000
 augmentation part        3.0463322 magnetization      -0.0000470

 Broyden mixing:
  rms(total) = 0.23375E-01    rms(broyden)= 0.23368E-01
  rms(prec ) = 0.26222E-01
  weight for this iteration     100.00

 eigenvalues of (default mixing * dielectric matrix)
  average eigenvalue GAMMA=   1.6271
  2.9921  2.4021  2.4021  1.2402  0.9221  0.7656  0.6653

 Free energy of the ion-electron system (eV)
  ---------------------------------------------------
  alpha Z        PSCENC =       253.52731049
  Ewald energy   TEWEN  =     -2885.75341591
  -Hartree energ DENC   =     -2059.35970425
  -exchange      EXHF   =         0.00000000
  -V(xc)+E(xc)   XCENC  =       460.03988889
  PAW double counting   =      2221.44681561    -2262.46483039
  entropy T*S    EENTRO =         0.00000000
  eigenvalues    EBANDS =      -730.81843188
  atomic energy  EATOM  =      4708.07116389
  Solvation  Ediel_sol  =         0.00000000
  ---------------------------------------------------
  free energy    TOTEN  =      -295.31120355 eV

  energy without entropy =     -295.31120355  energy(sigma->0) =     -295.31120355


--------------------------------------------------------------------------------------------------------




--------------------------------------- Iteration      1(  13)  ---------------------------------------


    POTLOK:  cpu time    0.0505: real time    0.0511
    SETDIJ:  cpu time    0.0213: real time    0.0213
    EDDIAG:  cpu time    0.1719: real time    0.1719
  RMM-DIIS:  cpu time    0.5073: real time    0.5073
    ORTHCH:  cpu time    0.0235: real time    0.0235
 BZINTS: Fermi energy:  2.604169;128.000000 electrons
         Band energy:-727.555615;  BLOECHL correction:  0.000000
       DOS:  cpu time    0.0006: real time    0.0006
    CHARGE:  cpu time    0.0799: real time    0.0799
    MIXING:  cpu time    0.0020: real time    0.0020
    --------------------------------------------
      LOOP:  cpu time    0.8569: real time    0.8576

 eigenvalue-minimisations  :  1792
 total energy-change (2. order) :-0.1152938E-02  (-0.6059013E-03)
 number of electron     128.0000000 magnetization      -0.0000000
 augmentation part        3.0453228 magnetization      -0.0000311

 Broyden mixing:
  rms(total) = 0.75564E-02    rms(broyden)= 0.75557E-02
  rms(prec ) = 0.81101E-02
  weight for this iteration     100.00

 eigenvalues of (default mixing * dielectric matrix)
  average eigenvalue GAMMA=   1.5868
  3.0405  2.4850  2.4850  1.3910  0.9664  0.9664  0.7144  0.6455

 Free energy of the ion-electron system (eV)
  ---------------------------------------------------
  alpha Z        PSCENC =       253.52731049
  Ewald energy   TEWEN  =     -2885.75341591
  -Hartree energ DENC   =     -2062.76265525
  -exchange      EXHF   =         0.00000000
  -V(xc)+E(xc)   XCENC  =       460.23902924
  PAW double counting   =      2226.73706386    -2267.81523799
  entropy T*S    EENTRO =         0.00000000
  eigenvalues    EBANDS =      -727.55561483
  atomic energy  EATOM  =      4708.07116389
  Solvation  Ediel_sol  =         0.00000000
  ---------------------------------------------------
  free energy    TOTEN  =      -295.31235649 eV

  energy without entropy =     -295.31235649  energy(sigma->0) =     -295.31235649


--------------------------------------------------------------------------------------------------------




--------------------------------------- Iteration      1(  14)  ---------------------------------------


    POTLOK:  cpu time    0.0479: real time    0.0507
    SETDIJ:  cpu time    0.0211: real time    0.0211
    EDDIAG:  cpu time    0.1713: real time    0.1713
  RMM-DIIS:  cpu time    0.5057: real time    0.5057
    ORTHCH:  cpu time    0.0233: real time    0.0233
 BZINTS: Fermi energy:  2.595467;128.000000 electrons
         Band energy:-727.171544;  BLOECHL correction:  0.000000
       DOS:  cpu time    0.0008: real time    0.0008
    CHARGE:  cpu time    0.0801: real time    0.0801
    MIXING:  cpu time    0.0022: real time    0.0022
    --------------------------------------------
      LOOP:  cpu time    0.8522: real time    0.8552

 eigenvalue-minimisations  :  1792
 total energy-change (2. order) :-0.3064837E-03  (-0.6582134E-04)
 number of electron     128.0000000 magnetization      -0.0000000
 augmentation part        3.0445214 magnetization       0.0000049

 Broyden mixing:
  rms(total) = 0.27013E-02    rms(broyden)= 0.27008E-02
  rms(prec ) = 0.29938E-02
  weight for this iteration     100.00

 eigenvalues of (default mixing * dielectric matrix)
  average eigenvalue GAMMA=   1.5765
  2.9816  2.5585  2.5585  1.8643  1.0862  0.8979  0.8979  0.7064  0.6375

 Free energy of the ion-electron system (eV)
  ---------------------------------------------------
  alpha Z        PSCENC =       253.52731049
  Ewald energy   TEWEN  =     -2885.75341591
  -Hartree energ DENC   =     -2063.13700069
  -exchange      EXHF   =         0.00000000
  -V(xc)+E(xc)   XCENC  =       460.27165099
  PAW double counting   =      2229.33905301    -2270.45988117
  entropy T*S    EENTRO =         0.00000000
  eigenvalues    EBANDS =      -727.17154359
  atomic energy  EATOM  =      4708.07116389
  Solvation  Ediel_sol  =         0.00000000
  ---------------------------------------------------
  free energy    TOTEN  =      -295.31266297 eV

  energy without entropy =     -295.31266297  energy(sigma->0) =     -295.31266297


--------------------------------------------------------------------------------------------------------




--------------------------------------- Iteration      1(  15)  ---------------------------------------


    POTLOK:  cpu time    0.0476: real time    0.0503
    SETDIJ:  cpu time    0.0214: real time    0.0214
    EDDIAG:  cpu time    0.1716: real time    0.1716
  RMM-DIIS:  cpu time    0.5111: real time    0.5112
    ORTHCH:  cpu time    0.0234: real time    0.0234
 BZINTS: Fermi energy:  2.611131;128.000000 electrons
         Band energy:-727.536594;  BLOECHL correction:  0.000000
       DOS:  cpu time    0.0006: real time    0.0006
    CHARGE:  cpu time    0.0799: real time    0.0799
    MIXING:  cpu time    0.0024: real time    0.0024
    --------------------------------------------
      LOOP:  cpu time    0.8581: real time    0.8608

 eigenvalue-minimisations  :  1793
 total energy-change (2. order) :-0.2500274E-04  (-0.8068176E-05)
 number of electron     128.0000000 magnetization      -0.0000000
 augmentation part        3.0446381 magnetization      -0.0000010

 Broyden mixing:
  rms(total) = 0.95406E-03    rms(broyden)= 0.95342E-03
  rms(prec ) = 0.10320E-02
  weight for this iteration     100.00

 eigenvalues of (default mixing * dielectric matrix)
  average eigenvalue GAMMA=   1.5650
  2.9587  2.6316  2.4558  2.4558  1.0560  1.0560  0.9779  0.7459  0.6776  0.6348

 Free energy of the ion-electron system (eV)
  ---------------------------------------------------
  alpha Z        PSCENC =       253.52731049
  Ewald energy   TEWEN  =     -2885.75341591
  -Hartree energ DENC   =     -2062.76143060
  -exchange      EXHF   =         0.00000000
  -V(xc)+E(xc)   XCENC  =       460.24936435
  PAW double counting   =      2229.19030711    -2270.29939302
  entropy T*S    EENTRO =         0.00000000
  eigenvalues    EBANDS =      -727.53659429
  atomic energy  EATOM  =      4708.07116389
  Solvation  Ediel_sol  =         0.00000000
  ---------------------------------------------------
  free energy    TOTEN  =      -295.31268798 eV

  energy without entropy =     -295.31268798  energy(sigma->0) =     -295.31268798


--------------------------------------------------------------------------------------------------------




--------------------------------------- Iteration      1(  16)  ---------------------------------------


    POTLOK:  cpu time    0.0498: real time    0.0507
    SETDIJ:  cpu time    0.0210: real time    0.0210
    EDDIAG:  cpu time    0.1710: real time    0.1710
  RMM-DIIS:  cpu time    0.4920: real time    0.4921
    ORTHCH:  cpu time    0.0233: real time    0.0234
 BZINTS: Fermi energy:  2.590843;128.000000 electrons
         Band energy:-727.498108;  BLOECHL correction:  0.000000
       DOS:  cpu time    0.0008: real time    0.0008
    CHARGE:  cpu time    0.0804: real time    0.0804
    MIXING:  cpu time    0.0026: real time    0.0026
    --------------------------------------------
      LOOP:  cpu time    0.8409: real time    0.8419

 eigenvalue-minimisations  :  1686
 total energy-change (2. order) :-0.7219227E-05  (-0.9303726E-06)
 number of electron     128.0000000 magnetization      -0.0000000
 augmentation part        3.0446881 magnetization      -0.0000008

 Broyden mixing:
  rms(total) = 0.20448E-03    rms(broyden)= 0.20397E-03
  rms(prec ) = 0.21661E-03
  weight for this iteration     100.00

 eigenvalues of (default mixing * dielectric matrix)
  average eigenvalue GAMMA=   1.5209
  3.0145  2.4919  2.4919  2.5818  1.1863  1.1863  0.8691  0.8691  0.7299  0.6254
  0.6832

 Free energy of the ion-electron system (eV)
  ---------------------------------------------------
  alpha Z        PSCENC =       253.52731049
  Ewald energy   TEWEN  =     -2885.75341591
  -Hartree energ DENC   =     -2062.80747308
  -exchange      EXHF   =         0.00000000
  -V(xc)+E(xc)   XCENC  =       460.25014925
  PAW double counting   =      2229.05305654    -2270.15537877
  entropy T*S    EENTRO =         0.00000000
  eigenvalues    EBANDS =      -727.49810761
  atomic energy  EATOM  =      4708.07116389
  Solvation  Ediel_sol  =         0.00000000
  ---------------------------------------------------
  free energy    TOTEN  =      -295.31269520 eV

  energy without entropy =     -295.31269520  energy(sigma->0) =     -295.31269520


--------------------------------------------------------------------------------------------------------




--------------------------------------- Iteration      1(  17)  ---------------------------------------


    POTLOK:  cpu time    0.0505: real time    0.0510
    SETDIJ:  cpu time    0.0214: real time    0.0214
    EDDIAG:  cpu time    0.1700: real time    0.1700
  RMM-DIIS:  cpu time    0.3947: real time    0.3947
    ORTHCH:  cpu time    0.0234: real time    0.0234
 BZINTS: Fermi energy:  2.613487;128.000000 electrons
         Band energy:-727.485797;  BLOECHL correction:  0.000000
       DOS:  cpu time    0.0006: real time    0.0006
    --------------------------------------------
      LOOP:  cpu time    0.6605: real time    0.6612

 eigenvalue-minimisations  :  1284
 total energy-change (2. order) :-0.7559211E-06  (-0.6650420E-07)
 number of electron     128.0000000 magnetization      -0.0000000
 augmentation part        3.0446881 magnetization      -0.0000008

 Free energy of the ion-electron system (eV)
  ---------------------------------------------------
  alpha Z        PSCENC =       253.52731049
  Ewald energy   TEWEN  =     -2885.75341591
  -Hartree energ DENC   =     -2062.82038573
  -exchange      EXHF   =         0.00000000
  -V(xc)+E(xc)   XCENC  =       460.25088047
  PAW double counting   =      2229.04973767    -2270.15219021
  entropy T*S    EENTRO =         0.00000000
  eigenvalues    EBANDS =      -727.48579662
  atomic energy  EATOM  =      4708.07116389
  Solvation  Ediel_sol  =         0.00000000
  ---------------------------------------------------
  free energy    TOTEN  =      -295.31269595 eV

  energy without entropy =     -295.31269595  energy(sigma->0) =     -295.31269595


--------------------------------------------------------------------------------------------------------




 average (electrostatic) potential at core
  the test charge radii are     0.6991
  (the norm of the test charge is              1.0000)
       1 -52.0026       2 -52.0026       3 -52.0026       4 -52.0026       5 -52.0026
       6 -52.0026       7 -52.0026       8 -52.0026       9 -52.0026      10 -52.0026
      11 -52.0026      12 -52.0026      13 -52.0026      14 -52.0026      15 -52.0026
      16 -52.0026      17 -51.9966      18 -51.9966      19 -51.9966      20 -51.9966
      21 -51.9966      22 -51.9966      23 -51.9966      24 -51.9966      25 -51.9966
      26 -51.9966      27 -51.9966      28 -51.9966      29 -51.9966      30 -51.9966
      31 -51.9966      32 -51.9966
 
 
 
 E-fermi :   2.6135     XC(G=0):  -9.2741     alpha+bet : -9.7614


 spin component 1

 k-point     1 :       0.0000    0.0000    0.0000
  band No.  band energies     occupation 
      1     -16.0981      1.00000
      2     -16.0567      1.00000
      3     -16.0567      1.00000
      4     -16.0143      1.00000
      5     -10.8371      1.00000
      6     -10.8371      1.00000
      7     -10.8371      1.00000
      8     -10.8223      1.00000
      9     -10.8223      1.00000
     10     -10.8223      1.00000
     11     -10.8223      1.00000
     12     -10.8223      1.00000
     13     -10.8223      1.00000
     14     -10.8080      1.00000
     15     -10.8080      1.00000
     16     -10.8080      1.00000
     17      -9.7822      1.00000
     18      -9.7822      1.00000
     19      -9.7822      1.00000
     20      -9.7716      1.00000
     21      -9.7716      1.00000
     22      -9.7715      1.00000
     23      -9.7715      1.00000
     24      -9.7715      1.00000
     25      -9.7715      1.00000
     26      -9.7594      1.00000
     27      -9.7594      1.00000
     28      -9.7594      1.00000
     29      -4.5667      1.00000
     30      -4.1674      1.00000
     31      -4.1674      1.00000
     32      -3.7185      1.00000
     33      -2.9590      1.00000
     34      -2.9590      1.00000
     35      -2.9590      1.00000
     36      -2.9530      1.00000
     37      -2.9530      1.00000
     38      -2.9530      1.00000
     39      -2.9530      1.00000
     40      -2.9530      1.00000
     41      -2.9530      1.00000
     42      -2.9477      1.00000
     43      -2.9477      1.00000
     44      -2.9476      1.00000
     45       0.4190      1.00000
     46       0.4190      1.00000
     47       0.4242      1.00000
     48       0.4243      1.00000
     49       0.4247      1.00000
     50       0.4247      1.00000
     51       0.4248      1.00000
     52       0.4248      1.00000
     53       0.9441      1.00000
     54       0.9441      1.00000
     55       0.9441      1.00000
     56       1.0858      1.00000
     57       1.0858      1.00000
     58       1.0858      1.00000
     59       1.0858      1.00000
     60       1.0859      1.00000
     61       1.0859      1.00000
     62       1.2191      1.00000
     63       1.2191      1.00000
     64       1.2192      1.00000
     65       4.9896      0.00000
     66       4.9896      0.00000
     67       4.9896      0.00000
     68       5.1166      0.00000
     69       5.1166      0.00000
     70       5.1166      0.00000
     71       5.1166      0.00000
     72       5.1166      0.00000
     73       5.1166      0.00000
     74       5.3296      0.00000
     75       5.3296      0.00000
     76       5.3296      0.00000
     77      10.7508      0.00000
     78      10.7508      0.00000
     79      10.7508      0.00000
     80      10.8088      0.00000
     81      10.8088      0.00000
     82      10.8088      0.00000
     83      10.8088      0.00000
     84      10.8088      0.00000
     85      10.8088      0.00000
     86      10.8684      0.00000
     87      10.8684      0.00000
     88      10.8684      0.00000
     89      11.7758      0.00000
     90      11.7758      0.00000
     91      11.7933      0.00000
     92      11.7934      0.00000
     93      11.7945      0.00000
     94      11.7945      0.00000
     95      11.7945      0.00000
     96      11.7945      0.00000
     97      14.8537      0.00000
     98      14.8918      0.00000
     99      14.8978      0.00000
    100      14.8981      0.00000
    101      15.8755      0.00000
    102      15.9030      0.00000
    103      15.9060      0.00000
    104      15.9320      0.00000
    105      23.4428      0.00000
    106      23.4453      0.00000
    107      23.4458      0.00000
    108      23.4485      0.00000
    109      23.4488      0.00000
    110      23.4521      0.00000
    111      23.4636      0.00000
    112      23.4966      0.00000

 k-point     2 :       0.2500    0.0000    0.0000
  band No.  band energies     occupation 
      1     -15.7286      1.00000
      2     -15.6881      1.00000
      3     -15.6881      1.00000
      4     -15.6469      1.00000
      5     -12.8392      1.00000
      6     -12.8071      1.00000
      7     -12.8071      1.00000
      8     -12.7746      1.00000
      9     -11.4777      1.00000
     10     -11.4777      1.00000
     11     -11.4502      1.00000
     12     -11.4502      1.00000
     13     -11.4502      1.00000
     14     -11.4502      1.00000
     15     -11.4224      1.00000
     16     -11.4224      1.00000
     17      -8.5716      1.00000
     18      -8.5716      1.00000
     19      -8.5516      1.00000
     20      -8.5516      1.00000
     21      -8.5515      1.00000
     22      -8.5515      1.00000
     23      -8.5311      1.00000
     24      -8.5311      1.00000
     25      -7.2651      1.00000
     26      -7.2467      1.00000
     27      -7.2467      1.00000
     28      -7.2281      1.00000
     29      -4.1201      1.00000
     30      -3.9761      1.00000
     31      -3.9761      1.00000
     32      -3.9670      1.00000
     33      -3.9670      1.00000
     34      -3.9670      1.00000
     35      -3.9670      1.00000
     36      -3.9578      1.00000
     37      -3.9578      1.00000
     38      -3.7292      1.00000
     39      -3.7292      1.00000
     40      -3.2879      1.00000
     41      -2.5976      1.00000
     42      -2.5908      1.00000
     43      -2.5908      1.00000
     44      -2.5862      1.00000
     45      -0.9665      1.00000
     46      -0.9617      1.00000
     47      -0.9617      1.00000
     48      -0.9557      1.00000
     49      -0.7764      1.00000
     50      -0.4650      1.00000
     51      -0.4650      1.00000
     52      -0.2845      1.00000
     53      -0.2789      1.00000
     54      -0.2789      1.00000
     55      -0.2753      1.00000
     56      -0.1226      1.00000
     57       0.6399      1.00000
     58       0.6399      1.00000
     59       0.8817      1.00000
     60       0.8817      1.00000
     61       0.8817      1.00000
     62       0.8817      1.00000
     63       1.1359      1.00000
     64       1.1359      1.00000
     65       5.5229      0.00000
     66       5.5230      0.00000
     67       5.6735      0.00000
     68       5.6735      0.00000
     69       5.6736      0.00000
     70       5.6736      0.00000
     71       5.8673      0.00000
     72       5.8673      0.00000
     73       7.0510      0.00000
     74       7.2276      0.00000
     75       7.2276      0.00000
     76       7.4506      0.00000
     77      10.9203      0.00000
     78      10.9859      0.00000
     79      10.9859      0.00000
     80      11.0096      0.00000
     81      11.7837      0.00000
     82      11.8219      0.00000
     83      11.8199      0.00000
     84      11.8221      0.00000
     85      12.3123      0.00000
     86      12.3124      0.00000
     87      12.3881      0.00000
     88      12.3882      0.00000
     89      12.3882      0.00000
     90      12.3882      0.00000
     91      12.4587      0.00000
     92      12.4588      0.00000
     93      13.2827      0.00000
     94      13.2935      0.00000
     95      13.2935      0.00000
     96      13.2965      0.00000
     97      13.6135      0.00000
     98      13.6589      0.00000
     99      13.6565      0.00000
    100      13.6934      0.00000
    101      16.5766      0.00000
    102      16.6201      0.00000
    103      16.6438      0.00000
    104      16.6862      0.00000
    105      20.0018      0.00000
    106      20.0450      0.00000
    107      20.0463      0.00000
    108      20.0723      0.00000
    109      20.7172      0.00000
    110      20.9276      0.00000
    111      21.0477      0.00000
    112      21.1093      0.00000

 k-point     3 :       0.5000    0.0000    0.0000
  band No.  band energies     occupation 
      1     -14.6295      1.00000
      2     -14.6295      1.00000
      3     -14.5923      1.00000
      4     -14.5923      1.00000
      5     -14.5923      1.00000
      6     -14.5923      1.00000
      7     -14.5543      1.00000
      8     -14.5543      1.00000
      9     -11.8054      1.00000
     10     -11.8054      1.00000
     11     -11.7763      1.00000
     12     -11.7763      1.00000
     13     -11.7763      1.00000
     14     -11.7763      1.00000
     15     -11.7470      1.00000
     16     -11.7470      1.00000
     17      -7.0837      1.00000
     18      -7.0837      1.00000
     19      -7.0742      1.00000
     20      -7.0742      1.00000
     21      -7.0742      1.00000
     22      -7.0742      1.00000
     23      -7.0657      1.00000
     24      -7.0657      1.00000
     25      -5.4959      1.00000
     26      -5.4959      1.00000
     27      -5.4884      1.00000
     28      -5.4884      1.00000
     29      -5.4884      1.00000
     30      -5.4884      1.00000
     31      -5.4821      1.00000
     32      -5.4821      1.00000
     33      -3.9830      1.00000
     34      -3.9830      1.00000
     35      -3.9707      1.00000
     36      -3.9707      1.00000
     37      -3.9707      1.00000
     38      -3.9707      1.00000
     39      -3.9601      1.00000
     40      -3.9601      1.00000
     41      -2.8111      1.00000
     42      -2.8111      1.00000
     43      -2.4424      1.00000
     44      -2.4424      1.00000
     45      -2.4424      1.00000
     46      -2.4424      1.00000
     47      -2.0301      1.00000
     48      -2.0301      1.00000
     49      -1.5936      1.00000
     50      -1.5936      1.00000
     51      -1.5861      1.00000
     52      -1.5861      1.00000
     53      -1.5861      1.00000
     54      -1.5861      1.00000
     55      -1.5830      1.00000
     56      -1.5830      1.00000
     57       0.4221      1.00000
     58       0.4221      1.00000
     59       0.7100      1.00000
     60       0.7100      1.00000
     61       0.7100      1.00000
     62       0.7100      1.00000
     63       1.0185      1.00000
     64       1.0185      1.00000
     65       6.1484      0.00000
     66       6.1484      0.00000
     67       6.2638      0.00000
     68       6.2638      0.00000
     69       6.2638      0.00000
     70       6.2638      0.00000
     71       6.3716      0.00000
     72       6.3716      0.00000
     73      10.5666      0.00000
     74      10.5666      0.00000
     75      10.6687      0.00000
     76      10.6712      0.00000
     77      10.6714      0.00000
     78      10.6746      0.00000
     79      10.7799      0.00000
     80      10.7799      0.00000
     81      11.4250      0.00000
     82      11.4258      0.00000
     83      11.4256      0.00000
     84      11.4257      0.00000
     85      11.4340      0.00000
     86      11.4342      0.00000
     87      11.4627      0.00000
     88      11.4635      0.00000
     89      15.3534      0.00000
     90      15.3570      0.00000
     91      15.4584      0.00000
     92      15.4391      0.00000
     93      15.4838      0.00000
     94      15.4880      0.00000
     95      15.5108      0.00000
     96      15.5009      0.00000
     97      16.0100      0.00000
     98      16.0151      0.00000
     99      16.0312      0.00000
    100      16.0224      0.00000
    101      16.0255      0.00000
    102      16.0538      0.00000
    103      16.2737      0.00000
    104      16.2757      0.00000
    105      16.8677      0.00000
    106      16.8684      0.00000
    107      16.8862      0.00000
    108      16.8865      0.00000
    109      16.8869      0.00000
    110      16.8873      0.00000
    111      16.8926      0.00000
    112      16.8931      0.00000

 k-point     4 :       0.2500    0.2500    0.0000
  band No.  band energies     occupation 
      1     -14.9942      1.00000
      2     -14.9560      1.00000
      3     -14.9560      1.00000
      4     -14.9170      1.00000
      5     -13.5485      1.00000
      6     -13.5485      1.00000
      7     -13.5144      1.00000
      8     -13.5144      1.00000
      9     -13.5144      1.00000
     10     -13.5144      1.00000
     11     -13.4797      1.00000
     12     -13.4797      1.00000
     13      -9.8876      1.00000
     14      -9.8743      1.00000
     15      -9.8743      1.00000
     16      -9.8616      1.00000
     17      -8.9959      1.00000
     18      -8.9906      1.00000
     19      -8.9906      1.00000
     20      -8.9839      1.00000
     21      -6.2842      1.00000
     22      -6.2723      1.00000
     23      -6.2723      1.00000
     24      -6.2600      1.00000
     25      -5.5692      1.00000
     26      -5.5692      1.00000
     27      -5.5563      1.00000
     28      -5.5563      1.00000
     29      -5.5563      1.00000
     30      -5.5563      1.00000
     31      -5.5431      1.00000
     32      -5.5431      1.00000
     33      -3.2404      1.00000
     34      -3.2071      1.00000
     35      -3.2071      1.00000
     36      -3.2003      1.00000
     37      -3.2003      1.00000
     38      -3.2003      1.00000
     39      -3.2003      1.00000
     40      -3.1921      1.00000
     41      -3.1921      1.00000
     42      -2.8648      1.00000
     43      -2.8648      1.00000
     44      -2.7724      1.00000
     45      -2.7681      1.00000
     46      -2.7681      1.00000
     47      -2.7631      1.00000
     48      -2.4416      1.00000
     49      -1.6856      1.00000
     50      -1.6839      1.00000
     51      -1.6839      1.00000
     52      -1.6794      1.00000
     53      -1.5477      1.00000
     54      -1.5477      1.00000
     55      -1.2072      1.00000
     56      -1.2072      1.00000
     57      -1.2072      1.00000
     58      -1.2072      1.00000
     59      -0.8283      1.00000
     60      -0.8283      1.00000
     61       2.2817      1.00000
     62       2.4231      1.00000
     63       2.4231      1.00000
     64       2.5433      1.00000
     65       4.3935      0.00000
     66       4.3935      0.00000
     67       4.4009      0.00000
     68       4.4230      0.00000
     69       8.5248      0.00000
     70       8.5248      0.00000
     71       8.6419      0.00000
     72       8.6419      0.00000
     73       8.6419      0.00000
     74       8.6419      0.00000
     75       8.7744      0.00000
     76       8.7744      0.00000
     77      11.5962      0.00000
     78      11.6562      0.00000
     79      11.6561      0.00000
     80      11.7279      0.00000
     81      12.5344      0.00000
     82      12.6016      0.00000
     83      12.6018      0.00000
     84      12.6216      0.00000
     85      12.6562      0.00000
     86      12.6567      0.00000
     87      12.6872      0.00000
     88      12.6878      0.00000
     89      12.6881      0.00000
     90      12.6881      0.00000
     91      12.7449      0.00000
     92      12.7452      0.00000
     93      14.2791      0.00000
     94      14.2969      0.00000
     95      14.2962      0.00000
     96      14.3090      0.00000
     97      14.2381      0.00000
     98      15.1455      0.00000
     99      15.3392      0.00000
    100      15.4593      0.00000
    101      15.7942      0.00000
    102      15.8306      0.00000
    103      16.5628      0.00000
    104      16.5752      0.00000
    105      16.7165      0.00000
    106      16.7154      0.00000
    107      16.7184      0.00000
    108      16.7251      0.00000
    109      16.8946      0.00000
    110      16.8993      0.00000
    111      18.1873      0.00000
    112      18.5861      0.00000

 spin component 2

 k-point     1 :       0.0000    0.0000    0.0000
  band No.  band energies     occupation 
      1     -16.0981      1.00000
      2     -16.0567      1.00000
      3     -16.0567      1.00000
      4     -16.0143      1.00000
      5     -10.8371      1.00000
      6     -10.8371      1.00000
      7     -10.8371      1.00000
      8     -10.8223      1.00000
      9     -10.8223      1.00000
     10     -10.8223      1.00000
     11     -10.8223      1.00000
     12     -10.8223      1.00000
     13     -10.8223      1.00000
     14     -10.8080      1.00000
     15     -10.8080      1.00000
     16     -10.8080      1.00000
     17      -9.7822      1.00000
     18      -9.7822      1.00000
     19      -9.7822      1.00000
     20      -9.7716      1.00000
     21      -9.7716      1.00000
     22      -9.7715      1.00000
     23      -9.7715      1.00000
     24      -9.7715      1.00000
     25      -9.7715      1.00000
     26      -9.7594      1.00000
     27      -9.7594      1.00000
     28      -9.7594      1.00000
     29      -4.5667      1.00000
     30      -4.1674      1.00000
     31      -4.1674      1.00000
     32      -3.7185      1.00000
     33      -2.9590      1.00000
     34      -2.9590      1.00000
     35      -2.9590      1.00000
     36      -2.9530      1.00000
     37      -2.9530      1.00000
     38      -2.9530      1.00000
     39      -2.9530      1.00000
     40      -2.9530      1.00000
     41      -2.9530      1.00000
     42      -2.9477      1.00000
     43      -2.9477      1.00000
     44      -2.9476      1.00000
     45       0.4190      1.00000
     46       0.4190      1.00000
     47       0.4242      1.00000
     48       0.4243      1.00000
     49       0.4247      1.00000
     50       0.4247      1.00000
     51       0.4248      1.00000
     52       0.4248      1.00000
     53       0.9441      1.00000
     54       0.9441      1.00000
     55       0.9441      1.00000
     56       1.0858      1.00000
     57       1.0858      1.00000
     58       1.0858      1.00000
     59       1.0858      1.00000
     60       1.0859      1.00000
     61       1.0859      1.00000
     62       1.2191      1.00000
     63       1.2191      1.00000
     64       1.2192      1.00000
     65       4.9896      0.00000
     66       4.9897      0.00000
     67       4.9897      0.00000
     68       5.1166      0.00000
     69       5.1166      0.00000
     70       5.1166      0.00000
     71       5.1166      0.00000
     72       5.1166      0.00000
     73       5.1166      0.00000
     74       5.3296      0.00000
     75       5.3296      0.00000
     76       5.3296      0.00000
     77      10.7508      0.00000
     78      10.7508      0.00000
     79      10.7508      0.00000
     80      10.8088      0.00000
     81      10.8088      0.00000
     82      10.8088      0.00000
     83      10.8088      0.00000
     84      10.8088      0.00000
     85      10.8088      0.00000
     86      10.8684      0.00000
     87      10.8684      0.00000
     88      10.8684      0.00000
     89      11.7758      0.00000
     90      11.7758      0.00000
     91      11.7933      0.00000
     92      11.7934      0.00000
     93      11.7944      0.00000
     94      11.7944      0.00000
     95      11.7945      0.00000
     96      11.7945      0.00000
     97      14.8537      0.00000
     98      14.8913      0.00000
     99      14.8981      0.00000
[...]
      2.467291  0.000000  9.753841    -0.000000   -0.000000   -0.176970  
     -1.233646  2.136737  9.753841    -0.000000   -0.000000   -0.176970  
      1.233645  2.136737  9.753841    -0.000000   -0.000000   -0.176970  
      0.000000  0.000000  5.852305    -0.000000   -0.000000    0.176970  
      2.467291  0.000000  5.852305    -0.000000   -0.000000    0.176970  
     -1.233646  2.136737  5.852305    -0.000000   -0.000000    0.176970  
      1.233645  2.136737  5.852305    -0.000000   -0.000000    0.176970  
      0.000000  0.000000 13.655378     0.000000    0.000000    0.176970  
      2.467291  0.000000 13.655378     0.000000    0.000000    0.176970  
     -1.233646  2.136737 13.655378     0.000000    0.000000    0.176970  
      1.233645  2.136737 13.655378     0.000000    0.000000    0.176970  
     -0.000002  1.424492  1.950768    -0.000000   -0.000000   -0.176583  
      2.467289  1.424492  1.950768    -0.000000   -0.000000   -0.176583  
     -1.233648  3.561229  1.950768    -0.000000   -0.000000   -0.176583  
      1.233643  3.561229  1.950768    -0.000000   -0.000000   -0.176583  
     -0.000002  1.424492  9.753841    -0.000000   -0.000000   -0.176583  
      2.467289  1.424492  9.753841    -0.000000   -0.000000   -0.176583  
     -1.233648  3.561229  9.753841    -0.000000   -0.000000   -0.176583  
      1.233643  3.561229  9.753841    -0.000000   -0.000000   -0.176583  
      1.233647  0.712245  5.852305    -0.000000   -0.000000    0.176583  
      3.700938  0.712245  5.852305    -0.000000   -0.000000    0.176583  
      0.000001  2.848982  5.852305    -0.000000   -0.000000    0.176583  
      2.467292  2.848982  5.852305    -0.000000   -0.000000    0.176583  
      1.233647  0.712245 13.655378     0.000000    0.000000    0.176583  
      3.700938  0.712245 13.655378     0.000000    0.000000    0.176583  
      0.000001  2.848982 13.655378     0.000000    0.000000    0.176583  
      2.467292  2.848982 13.655378     0.000000    0.000000    0.176583  
 
  92 f  =    0.906515 THz     5.695803 2PiTHz   30.238089 cm-1     3.749047 meV
             X         Y         Z           dx          dy          dz
      0.000000  0.000000  1.950768     0.000000    0.000000   -0.000190  
      2.467291  0.000000  1.950768     0.000000    0.000000   -0.000190  
     -1.233646  2.136737  1.950768     0.000000    0.000000   -0.000190  
      1.233645  2.136737  1.950768     0.000000    0.000000   -0.000190  
      0.000000  0.000000  9.753841     0.000000    0.000000    0.000190  
      2.467291  0.000000  9.753841     0.000000    0.000000    0.000190  
     -1.233646  2.136737  9.753841     0.000000    0.000000    0.000190  
      1.233645  2.136737  9.753841     0.000000    0.000000    0.000190  
      0.000000  0.000000  5.852305     0.000000    0.000000   -0.250218  
      2.467291  0.000000  5.852305     0.000000    0.000000   -0.250218  
     -1.233646  2.136737  5.852305     0.000000    0.000000   -0.250218  
      1.233645  2.136737  5.852305     0.000000    0.000000   -0.250218  
      0.000000  0.000000 13.655378     0.000000   -0.000000    0.250218  
      2.467291  0.000000 13.655378     0.000000   -0.000000    0.250218  
     -1.233646  2.136737 13.655378     0.000000   -0.000000    0.250218  
      1.233645  2.136737 13.655378     0.000000   -0.000000    0.250218  
     -0.000002  1.424492  1.950768     0.000000    0.000000   -0.000189  
      2.467289  1.424492  1.950768     0.000000    0.000000   -0.000189  
     -1.233648  3.561229  1.950768     0.000000    0.000000   -0.000189  
      1.233643  3.561229  1.950768     0.000000    0.000000   -0.000189  
     -0.000002  1.424492  9.753841     0.000000    0.000000    0.000189  
      2.467289  1.424492  9.753841     0.000000    0.000000    0.000189  
     -1.233648  3.561229  9.753841     0.000000    0.000000    0.000189  
      1.233643  3.561229  9.753841     0.000000    0.000000    0.000189  
      1.233647  0.712245  5.852305     0.000000    0.000000   -0.249782  
      3.700938  0.712245  5.852305     0.000000    0.000000   -0.249782  
      0.000001  2.848982  5.852305     0.000000    0.000000   -0.249782  
      2.467292  2.848982  5.852305     0.000000    0.000000   -0.249782  
      1.233647  0.712245 13.655378     0.000000   -0.000000    0.249782  
      3.700938  0.712245 13.655378     0.000000   -0.000000    0.249782  
      0.000001  2.848982 13.655378     0.000000   -0.000000    0.249782  
      2.467292  2.848982 13.655378     0.000000   -0.000000    0.249782  
 
  93 f  =    0.906515 THz     5.695803 2PiTHz   30.238089 cm-1     3.749047 meV
             X         Y         Z           dx          dy          dz
      0.000000  0.000000  1.950768    -0.000000   -0.000000    0.250218  
      2.467291  0.000000  1.950768    -0.000000   -0.000000    0.250218  
     -1.233646  2.136737  1.950768    -0.000000   -0.000000    0.250218  
      1.233645  2.136737  1.950768    -0.000000   -0.000000    0.250218  
      0.000000  0.000000  9.753841    -0.000000   -0.000000   -0.250218  
      2.467291  0.000000  9.753841    -0.000000   -0.000000   -0.250218  
     -1.233646  2.136737  9.753841    -0.000000   -0.000000   -0.250218  
      1.233645  2.136737  9.753841    -0.000000   -0.000000   -0.250218  
      0.000000  0.000000  5.852305     0.000000    0.000000   -0.000190  
      2.467291  0.000000  5.852305     0.000000    0.000000   -0.000190  
     -1.233646  2.136737  5.852305     0.000000    0.000000   -0.000190  
      1.233645  2.136737  5.852305     0.000000    0.000000   -0.000190  
      0.000000  0.000000 13.655378     0.000000    0.000000    0.000190  
      2.467291  0.000000 13.655378     0.000000    0.000000    0.000190  
     -1.233646  2.136737 13.655378     0.000000    0.000000    0.000190  
      1.233645  2.136737 13.655378     0.000000    0.000000    0.000190  
     -0.000002  1.424492  1.950768    -0.000000   -0.000000    0.249782  
      2.467289  1.424492  1.950768    -0.000000   -0.000000    0.249782  
     -1.233648  3.561229  1.950768    -0.000000   -0.000000    0.249782  
      1.233643  3.561229  1.950768    -0.000000   -0.000000    0.249782  
     -0.000002  1.424492  9.753841    -0.000000   -0.000000   -0.249782  
      2.467289  1.424492  9.753841    -0.000000   -0.000000   -0.249782  
     -1.233648  3.561229  9.753841    -0.000000   -0.000000   -0.249782  
      1.233643  3.561229  9.753841    -0.000000   -0.000000   -0.249782  
      1.233647  0.712245  5.852305     0.000000    0.000000   -0.000189  
      3.700938  0.712245  5.852305     0.000000    0.000000   -0.000189  
      0.000001  2.848982  5.852305     0.000000    0.000000   -0.000189  
      2.467292  2.848982  5.852305     0.000000    0.000000   -0.000189  
      1.233647  0.712245 13.655378     0.000000    0.000000    0.000189  
      3.700938  0.712245 13.655378     0.000000    0.000000    0.000189  
      0.000001  2.848982 13.655378     0.000000    0.000000    0.000189  
      2.467292  2.848982 13.655378     0.000000    0.000000    0.000189  
 
  94 f/i=    0.002032 THz     0.012764 2PiTHz    0.067764 cm-1     0.008402 meV
             X         Y         Z           dx          dy          dz
      0.000000  0.000000  1.950768    -0.160854   -0.073340    0.000000  
      2.467291  0.000000  1.950768    -0.160854   -0.073340    0.000000  
     -1.233646  2.136737  1.950768    -0.160854   -0.073340    0.000000  
      1.233645  2.136737  1.950768    -0.160854   -0.073340    0.000000  
      0.000000  0.000000  9.753841    -0.160854   -0.073340    0.000000  
      2.467291  0.000000  9.753841    -0.160854   -0.073340    0.000000  
     -1.233646  2.136737  9.753841    -0.160854   -0.073340    0.000000  
      1.233645  2.136737  9.753841    -0.160854   -0.073340    0.000000  
      0.000000  0.000000  5.852305    -0.160854   -0.073340    0.000000  
      2.467291  0.000000  5.852305    -0.160854   -0.073340    0.000000  
     -1.233646  2.136737  5.852305    -0.160854   -0.073340    0.000000  
      1.233645  2.136737  5.852305    -0.160854   -0.073340    0.000000  
      0.000000  0.000000 13.655378    -0.160854   -0.073340    0.000000  
      2.467291  0.000000 13.655378    -0.160854   -0.073340    0.000000  
     -1.233646  2.136737 13.655378    -0.160854   -0.073340    0.000000  
      1.233645  2.136737 13.655378    -0.160854   -0.073340    0.000000  
     -0.000002  1.424492  1.950768    -0.160840   -0.073334    0.000000  
      2.467289  1.424492  1.950768    -0.160840   -0.073334    0.000000  
     -1.233648  3.561229  1.950768    -0.160840   -0.073334    0.000000  
      1.233643  3.561229  1.950768    -0.160840   -0.073334    0.000000  
     -0.000002  1.424492  9.753841    -0.160840   -0.073334    0.000000  
      2.467289  1.424492  9.753841    -0.160840   -0.073334    0.000000  
     -1.233648  3.561229  9.753841    -0.160840   -0.073334    0.000000  
      1.233643  3.561229  9.753841    -0.160840   -0.073334    0.000000  
      1.233647  0.712245  5.852305    -0.160840   -0.073334    0.000000  
      3.700938  0.712245  5.852305    -0.160840   -0.073334    0.000000  
      0.000001  2.848982  5.852305    -0.160840   -0.073334    0.000000  
      2.467292  2.848982  5.852305    -0.160840   -0.073334    0.000000  
      1.233647  0.712245 13.655378    -0.160840   -0.073334    0.000000  
      3.700938  0.712245 13.655378    -0.160840   -0.073334    0.000000  
      0.000001  2.848982 13.655378    -0.160840   -0.073334    0.000000  
      2.467292  2.848982 13.655378    -0.160840   -0.073334    0.000000  
 
  95 f/i=    0.002032 THz     0.012764 2PiTHz    0.067764 cm-1     0.008402 meV
             X         Y         Z           dx          dy          dz
      0.000000  0.000000  1.950768     0.073340   -0.160854   -0.000000  
      2.467291  0.000000  1.950768     0.073340   -0.160854   -0.000000  
     -1.233646  2.136737  1.950768     0.073340   -0.160854   -0.000000  
      1.233645  2.136737  1.950768     0.073340   -0.160854   -0.000000  
      0.000000  0.000000  9.753841     0.073340   -0.160854   -0.000000  
      2.467291  0.000000  9.753841     0.073340   -0.160854   -0.000000  
     -1.233646  2.136737  9.753841     0.073340   -0.160854   -0.000000  
      1.233645  2.136737  9.753841     0.073340   -0.160854   -0.000000  
      0.000000  0.000000  5.852305     0.073340   -0.160854   -0.000000  
      2.467291  0.000000  5.852305     0.073340   -0.160854   -0.000000  
     -1.233646  2.136737  5.852305     0.073340   -0.160854   -0.000000  
      1.233645  2.136737  5.852305     0.073340   -0.160854   -0.000000  
      0.000000  0.000000 13.655378     0.073340   -0.160854   -0.000000  
      2.467291  0.000000 13.655378     0.073340   -0.160854   -0.000000  
     -1.233646  2.136737 13.655378     0.073340   -0.160854   -0.000000  
      1.233645  2.136737 13.655378     0.073340   -0.160854   -0.000000  
     -0.000002  1.424492  1.950768     0.073334   -0.160840   -0.000000  
      2.467289  1.424492  1.950768     0.073334   -0.160840   -0.000000  
     -1.233648  3.561229  1.950768     0.073334   -0.160840   -0.000000  
      1.233643  3.561229  1.950768     0.073334   -0.160840   -0.000000  
     -0.000002  1.424492  9.753841     0.073334   -0.160840   -0.000000  
      2.467289  1.424492  9.753841     0.073334   -0.160840   -0.000000  
     -1.233648  3.561229  9.753841     0.073334   -0.160840   -0.000000  
      1.233643  3.561229  9.753841     0.073334   -0.160840   -0.000000  
      1.233647  0.712245  5.852305     0.073334   -0.160840   -0.000000  
      3.700938  0.712245  5.852305     0.073334   -0.160840   -0.000000  
      0.000001  2.848982  5.852305     0.073334   -0.160840   -0.000000  
      2.467292  2.848982  5.852305     0.073334   -0.160840   -0.000000  
      1.233647  0.712245 13.655378     0.073334   -0.160840   -0.000000  
      3.700938  0.712245 13.655378     0.073334   -0.160840   -0.000000  
      0.000001  2.848982 13.655378     0.073334   -0.160840   -0.000000  
      2.467292  2.848982 13.655378     0.073334   -0.160840   -0.000000  
 
  96 f/i=    0.005051 THz     0.031736 2PiTHz    0.168483 cm-1     0.020889 meV
             X         Y         Z           dx          dy          dz
      0.000000  0.000000  1.950768     0.000000    0.000000    0.176811  
      2.467291  0.000000  1.950768     0.000000    0.000000    0.176811  
     -1.233646  2.136737  1.950768     0.000000    0.000000    0.176811  
      1.233645  2.136737  1.950768     0.000000    0.000000    0.176811  
      0.000000  0.000000  9.753841     0.000000    0.000000    0.176811  
      2.467291  0.000000  9.753841     0.000000    0.000000    0.176811  
     -1.233646  2.136737  9.753841     0.000000    0.000000    0.176811  
      1.233645  2.136737  9.753841     0.000000    0.000000    0.176811  
      0.000000  0.000000  5.852305     0.000000    0.000000    0.176811  
      2.467291  0.000000  5.852305     0.000000    0.000000    0.176811  
     -1.233646  2.136737  5.852305     0.000000    0.000000    0.176811  
      1.233645  2.136737  5.852305     0.000000    0.000000    0.176811  
      0.000000  0.000000 13.655378     0.000000    0.000000    0.176811  
      2.467291  0.000000 13.655378     0.000000    0.000000    0.176811  
     -1.233646  2.136737 13.655378     0.000000    0.000000    0.176811  
      1.233645  2.136737 13.655378     0.000000    0.000000    0.176811  
     -0.000002  1.424492  1.950768     0.000000    0.000000    0.176743  
      2.467289  1.424492  1.950768     0.000000    0.000000    0.176743  
     -1.233648  3.561229  1.950768     0.000000    0.000000    0.176743  
      1.233643  3.561229  1.950768     0.000000    0.000000    0.176743  
     -0.000002  1.424492  9.753841     0.000000    0.000000    0.176743  
      2.467289  1.424492  9.753841     0.000000    0.000000    0.176743  
     -1.233648  3.561229  9.753841     0.000000    0.000000    0.176743  
      1.233643  3.561229  9.753841     0.000000    0.000000    0.176743  
      1.233647  0.712245  5.852305     0.000000    0.000000    0.176743  
      3.700938  0.712245  5.852305     0.000000    0.000000    0.176743  
      0.000001  2.848982  5.852305     0.000000    0.000000    0.176743  
      2.467292  2.848982  5.852305     0.000000    0.000000    0.176743  
      1.233647  0.712245 13.655378     0.000000    0.000000    0.176743  
      3.700938  0.712245 13.655378     0.000000    0.000000    0.176743  
      0.000001  2.848982 13.655378     0.000000    0.000000    0.176743  
      2.467292  2.848982 13.655378     0.000000    0.000000    0.176743  
 


--------------------------------------------------------------------------------------------------------



 ELASTIC MODULI CONTR FROM IONIC RELAXATION (kBar)
 Direction    XX          YY          ZZ          XY          YZ          ZX
 --------------------------------------------------------------------------------
 XX        -244.4509    244.4510      0.0000      0.0001     -0.0000     -0.0000
 YY         244.4510   -244.4511     -0.0000      0.0001      0.0000      0.0000
 ZZ           0.0000     -0.0000     -0.0000      0.0000     -0.0000     -0.0000
 XY           0.0001      0.0001      0.0000   -244.4510     -0.0000     -0.0000
 YZ          -0.0000      0.0000     -0.0000     -0.0000     -0.0000     -0.0000
 ZX          -0.0000      0.0000     -0.0000     -0.0000     -0.0000     -0.0000
 --------------------------------------------------------------------------------



--------------------------------------------------------------------------------------------------------


     LOOP+:  cpu time  126.8819: real time  127.0040
    4ORBIT:  cpu time    0.0000: real time    0.0000
 


 total charge     
 
# of ion       s       p       d       tot
------------------------------------------
    1        0.867   1.788   0.000   2.655
    2        0.867   1.788   0.000   2.655
    3        0.867   1.788   0.000   2.655
    4        0.867   1.788   0.000   2.655
    5        0.867   1.788   0.000   2.655
    6        0.867   1.788   0.000   2.655
    7        0.867   1.788   0.000   2.655
    8        0.867   1.788   0.000   2.655
    9        0.867   1.788   0.000   2.655
   10        0.867   1.788   0.000   2.655
   11        0.867   1.788   0.000   2.655
   12        0.867   1.788   0.000   2.655
   13        0.867   1.788   0.000   2.655
   14        0.867   1.788   0.000   2.655
   15        0.867   1.788   0.000   2.655
   16        0.867   1.788   0.000   2.655
   17        0.867   1.789   0.000   2.656
   18        0.867   1.789   0.000   2.656
   19        0.867   1.789   0.000   2.656
   20        0.867   1.789   0.000   2.656
   21        0.867   1.789   0.000   2.656
   22        0.867   1.789   0.000   2.656
   23        0.867   1.789   0.000   2.656
   24        0.867   1.789   0.000   2.656
   25        0.867   1.789   0.000   2.656
   26        0.867   1.789   0.000   2.656
   27        0.867   1.789   0.000   2.656
   28        0.867   1.789   0.000   2.656
   29        0.867   1.789   0.000   2.656
   30        0.867   1.789   0.000   2.656
   31        0.867   1.789   0.000   2.656
   32        0.867   1.789   0.000   2.656
--------------------------------------------------
tot         27.743  57.238   0.000  84.981
 


 magnetization (x)
 
# of ion       s       p       d       tot
------------------------------------------
    1       -0.000  -0.000   0.000  -0.000
    2       -0.000  -0.000   0.000  -0.000
    3       -0.000  -0.000   0.000  -0.000
    4       -0.000  -0.000   0.000  -0.000
    5       -0.000  -0.000   0.000  -0.000
    6       -0.000  -0.000   0.000  -0.000
    7       -0.000  -0.000   0.000  -0.000
    8       -0.000  -0.000   0.000  -0.000
    9       -0.000  -0.000   0.000  -0.000
   10       -0.000  -0.000   0.000  -0.000
   11       -0.000  -0.000   0.000  -0.000
   12       -0.000  -0.000   0.000  -0.000
   13       -0.000  -0.000   0.000  -0.000
   14       -0.000  -0.000   0.000  -0.000
   15       -0.000  -0.000   0.000  -0.000
   16       -0.000  -0.000   0.000  -0.000
   17       -0.000   0.000   0.000   0.000
   18       -0.000   0.000   0.000   0.000
   19       -0.000   0.000   0.000   0.000
   20       -0.000   0.000   0.000   0.000
   21       -0.000   0.000   0.000   0.000
   22       -0.000   0.000   0.000   0.000
   23       -0.000   0.000   0.000   0.000
   24       -0.000   0.000   0.000   0.000
   25       -0.000   0.000   0.000   0.000
   26       -0.000   0.000   0.000   0.000
   27       -0.000   0.000   0.000   0.000
   28       -0.000   0.000   0.000   0.000
   29       -0.000   0.000   0.000   0.000
   30       -0.000   0.000   0.000   0.000
   31       -0.000   0.000   0.000   0.000
   32       -0.000   0.000   0.000   0.000
--------------------------------------------------
tot         -0.000  -0.000   0.000  -0.000
 
 BZINTS: Fermi energy:  2.573525;128.000000 electrons
         Band energy:-727.502402;  BLOECHL correction:  0.000000

 total amount of memory used by VASP MPI-rank0    61890. kBytes
=======================================================================

   base      :      30000. kBytes
   nonl-proj :       4632. kBytes
   fftplans  :       8538. kBytes
   grid      :      12890. kBytes
   one-center:        196. kBytes
   wavefun   :       5634. kBytes
 
  
  
 General timing and accounting informations for this job:
 ========================================================
  
                  Total CPU time used (sec):      128.741
                            User time (sec):      128.281
                          System time (sec):        0.460
                         Elapsed time (sec):      128.855
  
                   Maximum memory used (kb):      174368.
                   Average memory used (kb):           0.
  
                          Minor page faults:       139040
                          Major page faults:         1237
                 Voluntary context switches:          637
