phonopy:
  version: "2.20.0"
  frequency_unit_conversion_factor: 15.633302
  symmetry_tolerance: 1.00000e-05
  configuration:
    dim: "2 2 2"
    mp: "48 48 48"
    tmin: "0"
    tmax: "1000"
    tstep: "10"
    force_constants: "READ"
    cell_filename: "POSCAR-unitcell"
    tprop: ".true."

physical_unit:
  atomic_mass: "AMU"
  length: "angstrom"
  force_constants: "eV/angstrom^2"

space_group:
  type: "P6_3/mmc"
  number: 194
  Hall_symbol: "-P 6c 2c"

supercell_matrix:
- [   2,   0,   0 ]
- [   0,   2,   0 ]
- [   0,   0,   2 ]

primitive_cell:
  lattice:
  - [     2.467291000000000,     0.000000000000000,     0.000000000000000 ] # a
  - [    -1.233646000000000,     2.136737000000000,     0.000000000000000 ] # b
  - [     0.000000000000000,     0.000000000000000,     7.803073000000000 ] # c
  points:
  - symbol: C  # 1
    coordinates: [  0.000000000000000,  0.000000000000000,  0.250000000000000 ]
    mass: 12.010700
  - symbol: C  # 2
    coordinates: [  0.000000000000000,  0.000000000000000,  0.750000000000000 ]
    mass: 12.010700
  - symbol: C  # 3
    coordinates: [  0.333333000000000,  0.666667000000000,  0.250000000000000 ]
    mass: 12.010700
  - symbol: C  # 4
    coordinates: [  0.666667000000000,  0.333333000000000,  0.750000000000000 ]
    mass: 12.010700
  reciprocal_lattice: # without 2pi
  - [     0.405302819975431,     0.234001752509275,     0.000000000000000 ] # a*
  - [     0.000000000000000,     0.468003315335486,     0.000000000000000 ] # b*
  - [     0.000000000000000,     0.000000000000000,     0.128154638563551 ] # c*

unit_cell:
  lattice:
  - [     2.467291000000000,     0.000000000000000,     0.000000000000000 ] # a
  - [    -1.233646000000000,     2.136737000000000,     0.000000000000000 ] # b
  - [     0.000000000000000,     0.000000000000000,     7.803073000000000 ] # c
  points:
  - symbol: C  # 1
    coordinates: [  0.000000000000000,  0.000000000000000,  0.250000000000000 ]
    mass: 12.010700
    reduced_to: 1
  - symbol: C  # 2
    coordinates: [  0.000000000000000,  0.000000000000000,  0.750000000000000 ]
    mass: 12.010700
    reduced_to: 2
  - symbol: C  # 3
    coordinates: [  0.333333000000000,  0.666667000000000,  0.250000000000000 ]
    mass: 12.010700
    reduced_to: 3
  - symbol: C  # 4
    coordinates: [  0.666667000000000,  0.333333000000000,  0.750000000000000 ]
    mass: 12.010700
    reduced_to: 4

supercell:
  lattice:
  - [     4.934582000000000,     0.000000000000000,     0.000000000000000 ] # a
  - [    -2.467292000000000,     4.273474000000000,     0.000000000000000 ] # b
  - [     0.000000000000000,     0.000000000000000,    15.606146000000001 ] # c
  points:
  - symbol: C  # 1
    coordinates: [  0.000000000000000,  0.000000000000000,  0.125000000000000 ]
    mass: 12.010700
    reduced_to: 1
  - symbol: C  # 2
    coordinates: [  0.500000000000000,  0.000000000000000,  0.125000000000000 ]
    mass: 12.010700
    reduced_to: 1
  - symbol: C  # 3
    coordinates: [  0.000000000000000,  0.500000000000000,  0.125000000000000 ]
    mass: 12.010700
    reduced_to: 1
  - symbol: C  # 4
    coordinates: [  0.500000000000000,  0.500000000000000,  0.125000000000000 ]
    mass: 12.010700
    reduced_to: 1
  - symbol: C  # 5
    coordinates: [  0.000000000000000,  0.000000000000000,  0.625000000000000 ]
    mass: 12.010700
    reduced_to: 1
  - symbol: C  # 6
    coordinates: [  0.500000000000000,  0.000000000000000,  0.625000000000000 ]
    mass: 12.010700
    reduced_to: 1
  - symbol: C  # 7
    coordinates: [  0.000000000000000,  0.500000000000000,  0.625000000000000 ]
    mass: 12.010700
    reduced_to: 1
  - symbol: C  # 8
    coordinates: [  0.500000000000000,  0.500000000000000,  0.625000000000000 ]
    mass: 12.010700
    reduced_to: 1
  - symbol: C  # 9
    coordinates: [  0.000000000000000,  0.000000000000000,  0.375000000000000 ]
    mass: 12.010700
    reduced_to: 9
  - symbol: C  # 10
    coordinates: [  0.500000000000000,  0.000000000000000,  0.375000000000000 ]
    mass: 12.010700
    reduced_to: 9
  - symbol: C  # 11
    coordinates: [  0.000000000000000,  0.500000000000000,  0.375000000000000 ]
    mass: 12.010700
    reduced_to: 9
  - symbol: C  # 12
    coordinates: [  0.500000000000000,  0.500000000000000,  0.375000000000000 ]
    mass: 12.010700
    reduced_to: 9
  - symbol: C  # 13
    coordinates: [  0.000000000000000,  0.000000000000000,  0.875000000000000 ]
    mass: 12.010700
    reduced_to: 9
  - symbol: C  # 14
    coordinates: [  0.500000000000000,  0.000000000000000,  0.875000000000000 ]
    mass: 12.010700
    reduced_to: 9
  - symbol: C  # 15
    coordinates: [  0.000000000000000,  0.500000000000000,  0.875000000000000 ]
    mass: 12.010700
    reduced_to: 9
  - symbol: C  # 16
    coordinates: [  0.500000000000000,  0.500000000000000,  0.875000000000000 ]
    mass: 12.010700
    reduced_to: 9
  - symbol: C  # 17
    coordinates: [  0.166666500000000,  0.333333500000000,  0.125000000000000 ]
    mass: 12.010700
    reduced_to: 17
  - symbol: C  # 18
    coordinates: [  0.666666500000000,  0.333333500000000,  0.125000000000000 ]
    mass: 12.010700
    reduced_to: 17
  - symbol: C  # 19
    coordinates: [  0.166666500000000,  0.833333500000000,  0.125000000000000 ]
    mass: 12.010700
    reduced_to: 17
  - symbol: C  # 20
    coordinates: [  0.666666500000000,  0.833333500000000,  0.125000000000000 ]
    mass: 12.010700
    reduced_to: 17
  - symbol: C  # 21
    coordinates: [  0.166666500000000,  0.333333500000000,  0.625000000000000 ]
    mass: 12.010700
    reduced_to: 17
  - symbol: C  # 22
    coordinates: [  0.666666500000000,  0.333333500000000,  0.625000000000000 ]
    mass: 12.010700
    reduced_to: 17
  - symbol: C  # 23
    coordinates: [  0.166666500000000,  0.833333500000000,  0.625000000000000 ]
    mass: 12.010700
    reduced_to: 17
  - symbol: C  # 24
    coordinates: [  0.666666500000000,  0.833333500000000,  0.625000000000000 ]
    mass: 12.010700
    reduced_to: 17
  - symbol: C  # 25
    coordinates: [  0.333333500000000,  0.166666500000000,  0.375000000000000 ]
    mass: 12.010700
    reduced_to: 25
  - symbol: C  # 26
    coordinates: [  0.833333500000000,  0.166666500000000,  0.375000000000000 ]
    mass: 12.010700
    reduced_to: 25
  - symbol: C  # 27
    coordinates: [  0.333333500000000,  0.666666500000000,  0.375000000000000 ]
    mass: 12.010700
    reduced_to: 25
  - symbol: C  # 28
    coordinates: [  0.833333500000000,  0.666666500000000,  0.375000000000000 ]
    mass: 12.010700
    reduced_to: 25
  - symbol: C  # 29
    coordinates: [  0.333333500000000,  0.166666500000000,  0.875000000000000 ]
    mass: 12.010700
    reduced_to: 25
  - symbol: C  # 30
    coordinates: [  0.833333500000000,  0.166666500000000,  0.875000000000000 ]
    mass: 12.010700
    reduced_to: 25
  - symbol: C  # 31
    coordinates: [  0.333333500000000,  0.666666500000000,  0.875000000000000 ]
    mass: 12.010700
    reduced_to: 25
  - symbol: C  # 32
    coordinates: [  0.833333500000000,  0.666666500000000,  0.875000000000000 ]
    mass: 12.010700
    reduced_to: 25
