   4   4   1   0
  0.1028436E+02  0.2467291E-09  0.2467292E-09  0.7803073E-09  0.1500000E-16
   1.0000000000000000E-004
  CAR 
 unknown system                          
     22.06181585    -17.46910139  301      3.90926465      1.00000000
    -17.469  0.0000E+00  0.0000E+00  0.0000E+00  0.0000E+00
    -17.337  0.0000E+00  0.0000E+00  0.0000E+00  0.0000E+00
    -17.206  0.0000E+00  0.0000E+00  0.0000E+00  0.0000E+00
    -17.074  0.0000E+00  0.0000E+00  0.0000E+00  0.0000E+00
    -16.942  0.0000E+00  0.0000E+00  0.0000E+00  0.0000E+00
    -16.810  0.0000E+00  0.0000E+00  0.0000E+00  0.0000E+00
    -16.678  0.0000E+00  0.0000E+00  0.0000E+00  0.0000E+00
    -16.547  0.0000E+00  0.0000E+00  0.0000E+00  0.0000E+00
    -16.415  0.0000E+00  0.0000E+00  0.0000E+00  0.0000E+00
    -16.283  0.0000E+00  0.0000E+00  0.0000E+00  0.0000E+00
    -16.151  0.0000E+00  0.0000E+00  0.0000E+00  0.0000E+00
    -16.020  0.0000E+00  0.0000E+00  0.0000E+00  0.0000E+00
    -15.888  0.0000E+00  0.0000E+00  0.0000E+00  0.0000E+00
    -15.756  0.0000E+00  0.0000E+00  0.0000E+00  0.0000E+00
    -15.624  0.7906E-03  0.7908E-03  0.1395E-04  0.1396E-04
    -15.493  0.3155E-02  0.3155E-02  0.2784E-03  0.2785E-03
    -15.361  0.3102E-02  0.3102E-02  0.6876E-03  0.6876E-03
    -15.229  0.3030E-02  0.3030E-02  0.1088E-02  0.1088E-02
    -15.097  0.3136E-02  0.3136E-02  0.1500E-02  0.1500E-02
    -14.965  0.3024E-02  0.3024E-02  0.1904E-02  0.1904E-02
    -14.834  0.3118E-02  0.3118E-02  0.2307E-02  0.2307E-02
    -14.702  0.3132E-02  0.3132E-02  0.2722E-02  0.2722E-02
    -14.570  0.3055E-02  0.3055E-02  0.3128E-02  0.3128E-02
    -14.438  0.3093E-02  0.3093E-02  0.3533E-02  0.3533E-02
    -14.307  0.3170E-02  0.3170E-02  0.3945E-02  0.3945E-02
    -14.175  0.3128E-02  0.3128E-02  0.4362E-02  0.4362E-02
    -14.043  0.3086E-02  0.3086E-02  0.4769E-02  0.4769E-02
    -13.911  0.3119E-02  0.3119E-02  0.5178E-02  0.5178E-02
    -13.780  0.3160E-02  0.3160E-02  0.5591E-02  0.5591E-02
    -13.648  0.3183E-02  0.3183E-02  0.6011E-02  0.6011E-02
    -13.516  0.3131E-02  0.3131E-02  0.6426E-02  0.6426E-02
    -13.384  0.3132E-02  0.3132E-02  0.6839E-02  0.6839E-02
    -13.252  0.3159E-02  0.3159E-02  0.7253E-02  0.7253E-02
    -13.121  0.3193E-02  0.3193E-02  0.7672E-02  0.7672E-02
    -12.989  0.3220E-02  0.3220E-02  0.8095E-02  0.8095E-02
    -12.857  0.3186E-02  0.3186E-02  0.8517E-02  0.8517E-02
    -12.725  0.3185E-02  0.3185E-02  0.8936E-02  0.8936E-02
    -12.594  0.3200E-02  0.3200E-02  0.9357E-02  0.9357E-02
    -12.462  0.3224E-02  0.3224E-02  0.9780E-02  0.9780E-02
    -12.330  0.3256E-02  0.3256E-02  0.1021E-01  0.1021E-01
    -12.198  0.3282E-02  0.3282E-02  0.1064E-01  0.1064E-01
    -12.067  0.3261E-02  0.3261E-02  0.1107E-01  0.1107E-01
    -11.935  0.3272E-02  0.3272E-02  0.1150E-01  0.1150E-01
    -11.803  0.3296E-02  0.3296E-02  0.1193E-01  0.1193E-01
    -11.671  0.3325E-02  0.3325E-02  0.1237E-01  0.1237E-01
    -11.539  0.3359E-02  0.3359E-02  0.1281E-01  0.1281E-01
    -11.408  0.3407E-02  0.3407E-02  0.1325E-01  0.1325E-01
    -11.276  0.3443E-02  0.3444E-02  0.1371E-01  0.1371E-01
    -11.144  0.3477E-02  0.3477E-02  0.1416E-01  0.1416E-01
    -11.012  0.3577E-02  0.3577E-02  0.1463E-01  0.1463E-01
    -10.881  0.3726E-02  0.3726E-02  0.1511E-01  0.1511E-01
    -10.749  0.3972E-02  0.3972E-02  0.1561E-01  0.1561E-01
    -10.617  0.4220E-02  0.4220E-02  0.1615E-01  0.1615E-01
    -10.485  0.5456E-02  0.5455E-02  0.1688E-01  0.1688E-01
    -10.354  0.3464E-02  0.3464E-02  0.1746E-01  0.1746E-01
    -10.222  0.5212E-02  0.5224E-02  0.1790E-01  0.1790E-01
    -10.090  0.2339E-02  0.2339E-02  0.1843E-01  0.1843E-01
     -9.958  0.2061E-02  0.2061E-02  0.1872E-01  0.1872E-01
     -9.826  0.1782E-02  0.1782E-02  0.1897E-01  0.1897E-01
     -9.695  0.1503E-02  0.1503E-02  0.1919E-01  0.1919E-01
     -9.563  0.1742E-02  0.1742E-02  0.1938E-01  0.1938E-01
     -9.431  0.1430E-02  0.1433E-02  0.1964E-01  0.1964E-01
     -9.299  0.8566E-03  0.8570E-03  0.1976E-01  0.1976E-01
     -9.168  0.1435E-02  0.1435E-02  0.1991E-01  0.1991E-01
     -9.036  0.4247E-02  0.4247E-02  0.2025E-01  0.2025E-01
     -8.904  0.2680E-02  0.2680E-02  0.2075E-01  0.2075E-01
     -8.772  0.2828E-02  0.2828E-02  0.2111E-01  0.2111E-01
     -8.641  0.5942E-02  0.5927E-02  0.2158E-01  0.2158E-01
     -8.509  0.4079E-02  0.4079E-02  0.2218E-01  0.2218E-01
     -8.377  0.4813E-02  0.4814E-02  0.2276E-01  0.2276E-01
     -8.245  0.5602E-02  0.5604E-02  0.2345E-01  0.2345E-01
     -8.113  0.3908E-02  0.3908E-02  0.2407E-01  0.2407E-01
     -7.982  0.3737E-02  0.3737E-02  0.2457E-01  0.2457E-01
     -7.850  0.3568E-02  0.3568E-02  0.2505E-01  0.2505E-01
     -7.718  0.3406E-02  0.3406E-02  0.2551E-01  0.2551E-01
     -7.586  0.3251E-02  0.3251E-02  0.2595E-01  0.2595E-01
     -7.455  0.3095E-02  0.3095E-02  0.2637E-01  0.2637E-01
     -7.323  0.2983E-02  0.2983E-02  0.2677E-01  0.2677E-01
     -7.191  0.2943E-02  0.2943E-02  0.2716E-01  0.2716E-01
     -7.059  0.2903E-02  0.2903E-02  0.2754E-01  0.2754E-01
     -6.928  0.2863E-02  0.2863E-02  0.2792E-01  0.2792E-01
     -6.796  0.2821E-02  0.2821E-02  0.2830E-01  0.2830E-01
     -6.664  0.2574E-02  0.2574E-02  0.2865E-01  0.2865E-01
     -6.532  0.2918E-02  0.2918E-02  0.2900E-01  0.2900E-01
     -6.400  0.3393E-02  0.3393E-02  0.2942E-01  0.2942E-01
     -6.269  0.3867E-02  0.3867E-02  0.2990E-01  0.2990E-01
     -6.137  0.3753E-02  0.3753E-02  0.3041E-01  0.3041E-01
     -6.005  0.3690E-02  0.3690E-02  0.3090E-01  0.3090E-01
     -5.873  0.3626E-02  0.3626E-02  0.3139E-01  0.3139E-01
     -5.742  0.3577E-02  0.3577E-02  0.3186E-01  0.3186E-01
     -5.610  0.3694E-02  0.3694E-02  0.3234E-01  0.3234E-01
     -5.478  0.3798E-02  0.3798E-02  0.3283E-01  0.3283E-01
     -5.346  0.3901E-02  0.3902E-02  0.3334E-01  0.3334E-01
     -5.215  0.3946E-02  0.3946E-02  0.3386E-01  0.3386E-01
     -5.083  0.3955E-02  0.3955E-02  0.3438E-01  0.3438E-01
     -4.951  0.3904E-02  0.3904E-02  0.3490E-01  0.3490E-01
     -4.819  0.4003E-02  0.4003E-02  0.3541E-01  0.3541E-01
     -4.687  0.4047E-02  0.4047E-02  0.3595E-01  0.3595E-01
     -4.556  0.4092E-02  0.4092E-02  0.3648E-01  0.3648E-01
     -4.424  0.4136E-02  0.4136E-02  0.3702E-01  0.3702E-01
     -4.292  0.4200E-02  0.4200E-02  0.3757E-01  0.3757E-01
     -4.160  0.4728E-02  0.4728E-02  0.3815E-01  0.3815E-01
     -4.029  0.5165E-02  0.5165E-02  0.3881E-01  0.3881E-01
     -3.897  0.5485E-02  0.5485E-02  0.3951E-01  0.3951E-01
     -3.765  0.5769E-02  0.5769E-02  0.4025E-01  0.4025E-01
     -3.633  0.6068E-02  0.6068E-02  0.4103E-01  0.4103E-01
     -3.502  0.6324E-02  0.6324E-02  0.4185E-01  0.4185E-01
     -3.370  0.6820E-02  0.6820E-02  0.4271E-01  0.4271E-01
     -3.238  0.7792E-02  0.7792E-02  0.4368E-01  0.4368E-01
     -3.106  0.8962E-02  0.8962E-02  0.4478E-01  0.4478E-01
     -2.974  0.9695E-02  0.9695E-02  0.4601E-01  0.4601E-01
     -2.843  0.8271E-02  0.8271E-02  0.4719E-01  0.4719E-01
     -2.711  0.8162E-02  0.8162E-02  0.4824E-01  0.4824E-01
     -2.579  0.1057E-01  0.1057E-01  0.4949E-01  0.4949E-01
     -2.447  0.1125E-01  0.1125E-01  0.5101E-01  0.5101E-01
     -2.316  0.9945E-02  0.9945E-02  0.5237E-01  0.5237E-01
     -2.184  0.8277E-02  0.8277E-02  0.5359E-01  0.5359E-01
     -2.052  0.7699E-02  0.7698E-02  0.5462E-01  0.5462E-01
     -1.920  0.7957E-02  0.7957E-02  0.5563E-01  0.5563E-01
     -1.789  0.6331E-02  0.6331E-02  0.5659E-01  0.5659E-01
     -1.657  0.5949E-02  0.5949E-02  0.5741E-01  0.5741E-01
     -1.525  0.6434E-02  0.6434E-02  0.5819E-01  0.5819E-01
     -1.393  0.7690E-02  0.7690E-02  0.5910E-01  0.5910E-01
     -1.261  0.7523E-02  0.7523E-02  0.6010E-01  0.6010E-01
     -1.130  0.7114E-02  0.7114E-02  0.6107E-01  0.6107E-01
     -0.998  0.6745E-02  0.6745E-02  0.6198E-01  0.6198E-01
     -0.866  0.6318E-02  0.6318E-02  0.6285E-01  0.6285E-01
     -0.734  0.6225E-02  0.6225E-02  0.6367E-01  0.6367E-01
     -0.603  0.6074E-02  0.6074E-02  0.6448E-01  0.6448E-01
     -0.471  0.5942E-02  0.5942E-02  0.6527E-01  0.6527E-01
     -0.339  0.5816E-02  0.5816E-02  0.6604E-01  0.6604E-01
     -0.207  0.5722E-02  0.5722E-02  0.6680E-01  0.6680E-01
     -0.075  0.5884E-02  0.5884E-02  0.6756E-01  0.6756E-01
      0.056  0.5774E-02  0.5774E-02  0.6833E-01  0.6833E-01
      0.188  0.5627E-02  0.5627E-02  0.6908E-01  0.6908E-01
      0.320  0.5483E-02  0.5484E-02  0.6981E-01  0.6981E-01
      0.452  0.5736E-02  0.5737E-02  0.7056E-01  0.7056E-01
      0.583  0.5519E-02  0.5519E-02  0.7130E-01  0.7130E-01
      0.715  0.5441E-02  0.5442E-02  0.7205E-01  0.7205E-01
      0.847  0.4606E-02  0.4606E-02  0.7277E-01  0.7277E-01
      0.979  0.3731E-02  0.3732E-02  0.7328E-01  0.7328E-01
      1.110  0.3986E-02  0.3987E-02  0.7379E-01  0.7379E-01
      1.242  0.4526E-02  0.4541E-02  0.7434E-01  0.7434E-01
      1.374  0.4911E-02  0.4904E-02  0.7500E-01  0.7500E-01
      1.506  0.4909E-02  0.4903E-02  0.7565E-01  0.7565E-01
      1.638  0.4764E-02  0.4759E-02  0.7629E-01  0.7628E-01
      1.769  0.4138E-02  0.4136E-02  0.7692E-01  0.7692E-01
      1.901  0.3267E-02  0.3269E-02  0.7741E-01  0.7740E-01
      2.033  0.2812E-02  0.2812E-02  0.7780E-01  0.7780E-01
      2.165  0.2520E-02  0.2520E-02  0.7815E-01  0.7815E-01
      2.296  0.2146E-02  0.2144E-02  0.7846E-01  0.7846E-01
      2.428  0.1940E-02  0.1940E-02  0.7873E-01  0.7873E-01
      2.560  0.1712E-02  0.1713E-02  0.7897E-01  0.7897E-01
      2.692  0.1540E-02  0.1541E-02  0.7918E-01  0.7918E-01
      2.823  0.1313E-02  0.1314E-02  0.7937E-01  0.7937E-01
      2.955  0.1132E-02  0.1134E-02  0.7953E-01  0.7953E-01
      3.087  0.9367E-03  0.9386E-03  0.7967E-01  0.7967E-01
      3.219  0.7306E-03  0.7305E-03  0.7978E-01  0.7978E-01
      3.351  0.5517E-03  0.5484E-03  0.7986E-01  0.7986E-01
      3.482  0.3948E-03  0.3917E-03  0.7992E-01  0.7992E-01
      3.614  0.2425E-03  0.2415E-03  0.7997E-01  0.7997E-01
      3.746  0.1223E-03  0.1243E-03  0.7999E-01  0.7999E-01
      3.878  0.1955E-04  0.2391E-04  0.8000E-01  0.8000E-01
      4.009  0.6431E-04  0.5918E-04  0.8000E-01  0.8000E-01
      4.141  0.1621E-03  0.1594E-03  0.8002E-01  0.8002E-01
      4.273  0.2853E-03  0.2880E-03  0.8005E-01  0.8005E-01
      4.405  0.4492E-03  0.4535E-03  0.8010E-01  0.8009E-01
      4.536  0.6168E-03  0.6213E-03  0.8017E-01  0.8017E-01
      4.668  0.8080E-03  0.8084E-03  0.8026E-01  0.8026E-01
      4.800  0.1195E-02  0.1195E-02  0.8039E-01  0.8039E-01
      4.932  0.1588E-02  0.1591E-02  0.8057E-01  0.8057E-01
      5.064  0.1564E-02  0.1562E-02  0.8079E-01  0.8079E-01
      5.195  0.1958E-02  0.1960E-02  0.8101E-01  0.8101E-01
      5.327  0.2562E-02  0.2562E-02  0.8131E-01  0.8131E-01
      5.459  0.4142E-02  0.4167E-02  0.8177E-01  0.8177E-01
      5.591  0.5130E-02  0.5115E-02  0.8244E-01  0.8245E-01
      5.722  0.5119E-02  0.5139E-02  0.8314E-01  0.8315E-01
      5.854  0.4859E-02  0.4846E-02  0.8378E-01  0.8378E-01
      5.986  0.4481E-02  0.4495E-02  0.8442E-01  0.8442E-01
      6.118  0.3817E-02  0.3819E-02  0.8495E-01  0.8495E-01
      6.249  0.3479E-02  0.3480E-02  0.8543E-01  0.8543E-01
      6.381  0.3234E-02  0.3235E-02  0.8588E-01  0.8588E-01
      6.513  0.3050E-02  0.3050E-02  0.8629E-01  0.8629E-01
      6.645  0.2882E-02  0.2882E-02  0.8668E-01  0.8668E-01
      6.777  0.2752E-02  0.2752E-02  0.8705E-01  0.8705E-01
      6.908  0.2646E-02  0.2646E-02  0.8741E-01  0.8741E-01
      7.040  0.2575E-02  0.2575E-02  0.8775E-01  0.8775E-01
      7.172  0.2509E-02  0.2509E-02  0.8808E-01  0.8808E-01
      7.304  0.2446E-02  0.2446E-02  0.8841E-01  0.8841E-01
      7.435  0.2384E-02  0.2384E-02  0.8873E-01  0.8873E-01
      7.567  0.2320E-02  0.2320E-02  0.8904E-01  0.8904E-01
      7.699  0.2361E-02  0.2361E-02  0.8935E-01  0.8935E-01
      7.831  0.2436E-02  0.2436E-02  0.8966E-01  0.8966E-01
      7.962  0.2526E-02  0.2526E-02  0.8999E-01  0.8999E-01
      8.094  0.2634E-02  0.2634E-02  0.9033E-01  0.9033E-01
      8.226  0.2696E-02  0.2696E-02  0.9068E-01  0.9068E-01
      8.358  0.2723E-02  0.2723E-02  0.9104E-01  0.9104E-01
      8.490  0.2742E-02  0.2742E-02  0.9140E-01  0.9140E-01
      8.621  0.2768E-02  0.2768E-02  0.9176E-01  0.9176E-01
      8.753  0.2793E-02  0.2793E-02  0.9213E-01  0.9213E-01
      8.885  0.2811E-02  0.2811E-02  0.9250E-01  0.9250E-01
      9.017  0.2829E-02  0.2829E-02  0.9287E-01  0.9287E-01
      9.148  0.2861E-02  0.2861E-02  0.9324E-01  0.9324E-01
      9.280  0.2913E-02  0.2913E-02  0.9362E-01  0.9362E-01
      9.412  0.3070E-02  0.3070E-02  0.9401E-01  0.9401E-01
      9.544  0.3360E-02  0.3360E-02  0.9444E-01  0.9444E-01
      9.675  0.3507E-02  0.3507E-02  0.9489E-01  0.9489E-01
      9.807  0.3488E-02  0.3488E-02  0.9536E-01  0.9536E-01
      9.939  0.3625E-02  0.3626E-02  0.9582E-01  0.9582E-01
     10.071  0.2741E-02  0.2742E-02  0.9623E-01  0.9623E-01
     10.203  0.2264E-02  0.2265E-02  0.9656E-01  0.9656E-01
     10.334  0.2134E-02  0.2134E-02  0.9685E-01  0.9685E-01
     10.466  0.2330E-02  0.2330E-02  0.9714E-01  0.9714E-01
     10.598  0.2869E-02  0.2868E-02  0.9748E-01  0.9748E-01
     10.730  0.3218E-02  0.3217E-02  0.9788E-01  0.9788E-01
     10.861  0.3468E-02  0.3468E-02  0.9832E-01  0.9832E-01
     10.993  0.3482E-02  0.3482E-02  0.9878E-01  0.9878E-01
     11.125  0.3447E-02  0.3448E-02  0.9924E-01  0.9924E-01
     11.257  0.3838E-02  0.3839E-02  0.9970E-01  0.9970E-01
     11.388  0.6534E-02  0.6535E-02  0.1004E+00  0.1004E+00
     11.520  0.9242E-02  0.9243E-02  0.1014E+00  0.1014E+00
     11.652  0.9832E-02  0.9830E-02  0.1027E+00  0.1027E+00
     11.784  0.8676E-02  0.8676E-02  0.1040E+00  0.1040E+00
     11.916  0.8402E-02  0.8403E-02  0.1051E+00  0.1051E+00
     12.047  0.9550E-02  0.9549E-02  0.1062E+00  0.1062E+00
     12.179  0.1068E-01  0.1068E-01  0.1076E+00  0.1076E+00
     12.311  0.1585E-01  0.1585E-01  0.1091E+00  0.1091E+00
     12.443  0.1634E-01  0.1634E-01  0.1114E+00  0.1114E+00
     12.574  0.1366E-01  0.1365E-01  0.1134E+00  0.1134E+00
     12.706  0.9882E-02  0.9879E-02  0.1149E+00  0.1149E+00
     12.838  0.9552E-02  0.9552E-02  0.1161E+00  0.1161E+00
     12.970  0.9386E-02  0.9384E-02  0.1174E+00  0.1174E+00
     13.101  0.9219E-02  0.9220E-02  0.1186E+00  0.1186E+00
     13.233  0.8801E-02  0.8800E-02  0.1198E+00  0.1198E+00
     13.365  0.9361E-02  0.9360E-02  0.1210E+00  0.1210E+00
     13.497  0.1077E-01  0.1077E-01  0.1223E+00  0.1223E+00
     13.629  0.8833E-02  0.8833E-02  0.1236E+00  0.1236E+00
     13.760  0.6759E-02  0.6759E-02  0.1246E+00  0.1246E+00
     13.892  0.6295E-02  0.6292E-02  0.1255E+00  0.1255E+00
     14.024  0.6560E-02  0.6557E-02  0.1263E+00  0.1263E+00
     14.156  0.8718E-02  0.8716E-02  0.1274E+00  0.1274E+00
     14.287  0.1010E-01  0.1008E-01  0.1286E+00  0.1286E+00
     14.419  0.1183E-01  0.1182E-01  0.1301E+00  0.1301E+00
     14.551  0.1073E-01  0.1074E-01  0.1316E+00  0.1316E+00
     14.683  0.9584E-02  0.9591E-02  0.1329E+00  0.1329E+00
     14.814  0.8995E-02  0.9002E-02  0.1342E+00  0.1342E+00
     14.946  0.8298E-02  0.8300E-02  0.1353E+00  0.1353E+00
     15.078  0.7917E-02  0.7924E-02  0.1364E+00  0.1364E+00
     15.210  0.7364E-02  0.7370E-02  0.1374E+00  0.1374E+00
     15.342  0.7894E-02  0.7895E-02  0.1383E+00  0.1383E+00
     15.473  0.8606E-02  0.8610E-02  0.1395E+00  0.1395E+00
     15.605  0.8397E-02  0.8403E-02  0.1406E+00  0.1406E+00
     15.737  0.7492E-02  0.7492E-02  0.1417E+00  0.1417E+00
     15.869  0.6064E-02  0.6070E-02  0.1426E+00  0.1426E+00
     16.000  0.5265E-02  0.5266E-02  0.1433E+00  0.1433E+00
     16.132  0.5110E-02  0.5119E-02  0.1440E+00  0.1440E+00
     16.264  0.6028E-02  0.6027E-02  0.1448E+00  0.1448E+00
     16.396  0.6307E-02  0.6308E-02  0.1456E+00  0.1456E+00
     16.527  0.6472E-02  0.6473E-02  0.1464E+00  0.1464E+00
     16.659  0.6351E-02  0.6347E-02  0.1473E+00  0.1473E+00
     16.791  0.7414E-02  0.7416E-02  0.1482E+00  0.1482E+00
     16.923  0.8092E-02  0.8095E-02  0.1492E+00  0.1492E+00
     17.055  0.8924E-02  0.8936E-02  0.1503E+00  0.1503E+00
     17.186  0.9377E-02  0.9402E-02  0.1515E+00  0.1515E+00
     17.318  0.8427E-02  0.8417E-02  0.1527E+00  0.1527E+00
     17.450  0.6136E-02  0.6136E-02  0.1537E+00  0.1537E+00
     17.582  0.5227E-02  0.5228E-02  0.1544E+00  0.1544E+00
     17.713  0.4695E-02  0.4694E-02  0.1551E+00  0.1551E+00
     17.845  0.4347E-02  0.4346E-02  0.1557E+00  0.1557E+00
     17.977  0.4101E-02  0.4100E-02  0.1562E+00  0.1562E+00
     18.109  0.3845E-02  0.3841E-02  0.1567E+00  0.1567E+00
     18.240  0.3626E-02  0.3615E-02  0.1572E+00  0.1572E+00
     18.372  0.3266E-02  0.3258E-02  0.1577E+00  0.1577E+00
     18.504  0.2828E-02  0.2826E-02  0.1581E+00  0.1581E+00
     18.636  0.2472E-02  0.2471E-02  0.1584E+00  0.1584E+00
     18.768  0.2120E-02  0.2119E-02  0.1587E+00  0.1587E+00
     18.899  0.1772E-02  0.1772E-02  0.1590E+00  0.1590E+00
     19.031  0.1448E-02  0.1448E-02  0.1592E+00  0.1592E+00
     19.163  0.1200E-02  0.1199E-02  0.1594E+00  0.1594E+00
     19.295  0.1002E-02  0.1001E-02  0.1595E+00  0.1595E+00
     19.426  0.8256E-03  0.8249E-03  0.1597E+00  0.1597E+00
     19.558  0.6727E-03  0.6722E-03  0.1598E+00  0.1598E+00
     19.690  0.5618E-03  0.5610E-03  0.1598E+00  0.1598E+00
     19.822  0.4601E-03  0.4591E-03  0.1599E+00  0.1599E+00
     19.954  0.3268E-03  0.3257E-03  0.1600E+00  0.1600E+00
     20.085  0.1800E-03  0.1797E-03  0.1600E+00  0.1600E+00
     20.217  0.3706E-04  0.3784E-04  0.1600E+00  0.1600E+00
     20.349  0.0000E+00  0.0000E+00  0.1600E+00  0.1600E+00
     20.481  0.0000E+00  0.0000E+00  0.1600E+00  0.1600E+00
     20.612  0.0000E+00  0.0000E+00  0.1600E+00  0.1600E+00
     20.744  0.0000E+00  0.0000E+00  0.1600E+00  0.1600E+00
     20.876  0.0000E+00  0.0000E+00  0.1600E+00  0.1600E+00
     21.008  0.0000E+00  0.0000E+00  0.1600E+00  0.1600E+00
     21.139  0.0000E+00  0.0000E+00  0.1600E+00  0.1600E+00
     21.271  0.0000E+00  0.0000E+00  0.1600E+00  0.1600E+00
     21.403  0.0000E+00  0.0000E+00  0.1600E+00  0.1600E+00
     21.535  0.0000E+00  0.0000E+00  0.1600E+00  0.1600E+00
     21.667  0.0000E+00  0.0000E+00  0.1600E+00  0.1600E+00
     21.798  0.0000E+00  0.0000E+00  0.1600E+00  0.1600E+00
     21.930  0.0000E+00  0.0000E+00  0.1600E+00  0.1600E+00
     22.062  0.0000E+00  0.0000E+00  0.1600E+00  0.1600E+00
     22.06181585    -17.46910139  301      3.90926465      1.00000000
    -17.469  0.0000E+00  0.0000E+00  0.0000E+00  0.0000E+00  0.0000E+00  0.0000E+00  0.0000E+00  0.0000E+00  0.0000E+00  0.0000E+00  0.0000E+00  0.0000E+00  0.0000E+00  0.0000E+00  0.0000E+00  0.0000E+00  0.0000E+00  0.0000E+00
    -17.337  0.0000E+00  0.0000E+00  0.0000E+00  0.0000E+00  0.0000E+00  0.0000E+00  0.0000E+00  0.0000E+00  0.0000E+00  0.0000E+00  0.0000E+00  0.0000E+00  0.0000E+00  0.0000E+00  0.0000E+00  0.0000E+00  0.0000E+00  0.0000E+00
    -17.206  0.0000E+00  0.0000E+00  0.0000E+00  0.0000E+00  0.0000E+00  0.0000E+00  0.0000E+00  0.0000E+00  0.0000E+00  0.0000E+00  0.0000E+00  0.0000E+00  0.0000E+00  0.0000E+00  0.0000E+00  0.0000E+00  0.0000E+00  0.0000E+00
    -17.074  0.0000E+00  0.0000E+00  0.0000E+00  0.0000E+00  0.0000E+00  0.0000E+00  0.0000E+00  0.0000E+00  0.0000E+00  0.0000E+00  0.0000E+00  0.0000E+00  0.0000E+00  0.0000E+00  0.0000E+00  0.0000E+00  0.0000E+00  0.0000E+00
    -16.942  0.0000E+00  0.0000E+00  0.0000E+00  0.0000E+00  0.0000E+00  0.0000E+00  0.0000E+00  0.0000E+00  0.0000E+00  0.0000E+00  0.0000E+00  0.0000E+00  0.0000E+00  0.0000E+00  0.0000E+00  0.0000E+00  0.0000E+00  0.0000E+00
    -16.810  0.0000E+00  0.0000E+00  0.0000E+00  0.0000E+00  0.0000E+00  0.0000E+00  0.0000E+00  0.0000E+00  0.0000E+00  0.0000E+00  0.0000E+00  0.0000E+00  0.0000E+00  0.0000E+00  0.0000E+00  0.0000E+00  0.0000E+00  0.0000E+00
    -16.678  0.0000E+00  0.0000E+00  0.0000E+00  0.0000E+00  0.0000E+00  0.0000E+00  0.0000E+00  0.0000E+00  0.0000E+00  0.0000E+00  0.0000E+00  0.0000E+00  0.0000E+00  0.0000E+00  0.0000E+00  0.0000E+00  0.0000E+00  0.0000E+00
    -16.547  0.0000E+00  0.0000E+00  0.0000E+00  0.0000E+00  0.0000E+00  0.0000E+00  0.0000E+00  0.0000E+00  0.0000E+00  0.0000E+00  0.0000E+00  0.0000E+00  0.0000E+00  0.0000E+00  0.0000E+00  0.0000E+00  0.0000E+00  0.0000E+00
    -16.415  0.0000E+00  0.0000E+00  0.0000E+00  0.0000E+00  0.0000E+00  0.0000E+00  0.0000E+00  0.0000E+00  0.0000E+00  0.0000E+00  0.0000E+00  0.0000E+00  0.0000E+00  0.0000E+00  0.0000E+00  0.0000E+00  0.0000E+00  0.0000E+00
    -16.283  0.0000E+00  0.0000E+00  0.0000E+00  0.0000E+00  0.0000E+00  0.0000E+00  0.0000E+00  0.0000E+00  0.0000E+00  0.0000E+00  0.0000E+00  0.0000E+00  0.0000E+00  0.0000E+00  0.0000E+00  0.0000E+00  0.0000E+00  0.0000E+00
    -16.151  0.0000E+00  0.0000E+00  0.0000E+00  0.0000E+00  0.0000E+00  0.0000E+00  0.0000E+00  0.0000E+00  0.0000E+00  0.0000E+00  0.0000E+00  0.0000E+00  0.0000E+00  0.0000E+00  0.0000E+00  0.0000E+00  0.0000E+00  0.0000E+00
    -16.020  0.0000E+00  0.0000E+00  0.0000E+00  0.0000E+00  0.0000E+00  0.0000E+00  0.0000E+00  0.0000E+00  0.0000E+00  0.0000E+00  0.0000E+00  0.0000E+00  0.0000E+00  0.0000E+00  0.0000E+00  0.0000E+00  0.0000E+00  0.0000E+00
    -15.888  0.0000E+00  0.0000E+00  0.0000E+00  0.0000E+00  0.0000E+00  0.0000E+00  0.0000E+00  0.0000E+00  0.0000E+00  0.0000E+00  0.0000E+00  0.0000E+00  0.0000E+00  0.0000E+00  0.0000E+00  0.0000E+00  0.0000E+00  0.0000E+00
    -15.756  0.0000E+00  0.0000E+00  0.0000E+00  0.0000E+00  0.0000E+00  0.0000E+00  0.0000E+00  0.0000E+00  0.0000E+00  0.0000E+00  0.0000E+00  0.0000E+00  0.0000E+00  0.0000E+00  0.0000E+00  0.0000E+00  0.0000E+00  0.0000E+00
    -15.624  0.1349E-01  0.1350E-01  0.1005E-04  0.1005E-04  0.1149E-06  0.1151E-06  0.3014E-04  0.3014E-04  0.0000E+00  0.0000E+00  0.0000E+00  0.0000E+00  0.0000E+00  0.0000E+00  0.0000E+00  0.0000E+00  0.0000E+00  0.0000E+00
    -15.493  0.5031E-01  0.5034E-01  0.1792E-03  0.1791E-03  0.9412E-06  0.9423E-06  0.2192E-03  0.2191E-03  0.0000E+00  0.0000E+00  0.0000E+00  0.0000E+00  0.0000E+00  0.0000E+00  0.0000E+00  0.0000E+00  0.0000E+00  0.0000E+00
    -15.361  0.4909E-01  0.4911E-01  0.4149E-03  0.4148E-03  0.9438E-06  0.9449E-06  0.4265E-03  0.4264E-03  0.0000E+00  0.0000E+00  0.0000E+00  0.0000E+00  0.0000E+00  0.0000E+00  0.0000E+00  0.0000E+00  0.0000E+00  0.0000E+00
    -15.229  0.4809E-01  0.4812E-01  0.6154E-03  0.6152E-03  0.8753E-06  0.8765E-06  0.6442E-03  0.6440E-03  0.0000E+00  0.0000E+00  0.0000E+00  0.0000E+00  0.0000E+00  0.0000E+00  0.0000E+00  0.0000E+00  0.0000E+00  0.0000E+00
    -15.097  0.4908E-01  0.4910E-01  0.8067E-03  0.8064E-03  0.9097E-06  0.9108E-06  0.8869E-03  0.8865E-03  0.0000E+00  0.0000E+00  0.0000E+00  0.0000E+00  0.0000E+00  0.0000E+00  0.0000E+00  0.0000E+00  0.0000E+00  0.0000E+00
    -14.965  0.4713E-01  0.4715E-01  0.1073E-02  0.1073E-02  0.8429E-06  0.8440E-06  0.1065E-02  0.1065E-02  0.0000E+00  0.0000E+00  0.0000E+00  0.0000E+00  0.0000E+00  0.0000E+00  0.0000E+00  0.0000E+00  0.0000E+00  0.0000E+00
    -14.834  0.4854E-01  0.4856E-01  0.1256E-02  0.1255E-02  0.8522E-06  0.8534E-06  0.1277E-02  0.1277E-02  0.0000E+00  0.0000E+00  0.0000E+00  0.0000E+00  0.0000E+00  0.0000E+00  0.0000E+00  0.0000E+00  0.0000E+00  0.0000E+00
    -14.702  0.4818E-01  0.4820E-01  0.1464E-02  0.1463E-02  0.8511E-06  0.8523E-06  0.1517E-02  0.1516E-02  0.0000E+00  0.0000E+00  0.0000E+00  0.0000E+00  0.0000E+00  0.0000E+00  0.0000E+00  0.0000E+00  0.0000E+00  0.0000E+00
    -14.570  0.4673E-01  0.4675E-01  0.1710E-02  0.1709E-02  0.8031E-06  0.8042E-06  0.1722E-02  0.1721E-02  0.0000E+00  0.0000E+00  0.0000E+00  0.0000E+00  0.0000E+00  0.0000E+00  0.0000E+00  0.0000E+00  0.0000E+00  0.0000E+00
    -14.438  0.4706E-01  0.4709E-01  0.1921E-02  0.1920E-02  0.7977E-06  0.7988E-06  0.1918E-02  0.1917E-02  0.0000E+00  0.0000E+00  0.0000E+00  0.0000E+00  0.0000E+00  0.0000E+00  0.0000E+00  0.0000E+00  0.0000E+00  0.0000E+00
    -14.307  0.4811E-01  0.4814E-01  0.2073E-02  0.2072E-02  0.8051E-06  0.8063E-06  0.2155E-02  0.2154E-02  0.0000E+00  0.0000E+00  0.0000E+00  0.0000E+00  0.0000E+00  0.0000E+00  0.0000E+00  0.0000E+00  0.0000E+00  0.0000E+00
    -14.175  0.4694E-01  0.4697E-01  0.2308E-02  0.2307E-02  0.7777E-06  0.7788E-06  0.2393E-02  0.2392E-02  0.0000E+00  0.0000E+00  0.0000E+00  0.0000E+00  0.0000E+00  0.0000E+00  0.0000E+00  0.0000E+00  0.0000E+00  0.0000E+00
    -14.043  0.4593E-01  0.4596E-01  0.2562E-02  0.2560E-02  0.7504E-06  0.7515E-06  0.2595E-02  0.2594E-02  0.0000E+00  0.0000E+00  0.0000E+00  0.0000E+00  0.0000E+00  0.0000E+00  0.0000E+00  0.0000E+00  0.0000E+00  0.0000E+00
    -13.911  0.4621E-01  0.4624E-01  0.2778E-02  0.2777E-02  0.7462E-06  0.7474E-06  0.2780E-02  0.2778E-02  0.0000E+00  0.0000E+00  0.0000E+00  0.0000E+00  0.0000E+00  0.0000E+00  0.0000E+00  0.0000E+00  0.0000E+00  0.0000E+00
    -13.780  0.4662E-01  0.4665E-01  0.2980E-02  0.2978E-02  0.7439E-06  0.7451E-06  0.2975E-02  0.2974E-02  0.0000E+00  0.0000E+00  0.0000E+00  0.0000E+00  0.0000E+00  0.0000E+00  0.0000E+00  0.0000E+00  0.0000E+00  0.0000E+00
    -13.648  0.4663E-01  0.4666E-01  0.3171E-02  0.3169E-02  0.7411E-06  0.7423E-06  0.3212E-02  0.3210E-02  0.0000E+00  0.0000E+00  0.0000E+00  0.0000E+00  0.0000E+00  0.0000E+00  0.0000E+00  0.0000E+00  0.0000E+00  0.0000E+00
    -13.516  0.4542E-01  0.4545E-01  0.3424E-02  0.3422E-02  0.7071E-06  0.7083E-06  0.3448E-02  0.3445E-02  0.0000E+00  0.0000E+00  0.0000E+00  0.0000E+00  0.0000E+00  0.0000E+00  0.0000E+00  0.0000E+00  0.0000E+00  0.0000E+00
    -13.384  0.4511E-01  0.4514E-01  0.3640E-02  0.3638E-02  0.6931E-06  0.6943E-06  0.3662E-02  0.3660E-02  0.0000E+00  0.0000E+00  0.0000E+00  0.0000E+00  0.0000E+00  0.0000E+00  0.0000E+00  0.0000E+00  0.0000E+00  0.0000E+00
    -13.252  0.4529E-01  0.4532E-01  0.3836E-02  0.3833E-02  0.6874E-06  0.6886E-06  0.3864E-02  0.3861E-02  0.0000E+00  0.0000E+00  0.0000E+00  0.0000E+00  0.0000E+00  0.0000E+00  0.0000E+00  0.0000E+00  0.0000E+00  0.0000E+00
    -13.121  0.4558E-01  0.4562E-01  0.4027E-02  0.4025E-02  0.6843E-06  0.6856E-06  0.4064E-02  0.4061E-02  0.0000E+00  0.0000E+00  0.0000E+00  0.0000E+00  0.0000E+00  0.0000E+00  0.0000E+00  0.0000E+00  0.0000E+00  0.0000E+00
    -12.989  0.4576E-01  0.4580E-01  0.4219E-02  0.4217E-02  0.6803E-06  0.6816E-06  0.4279E-02  0.4275E-02  0.0000E+00  0.0000E+00  0.0000E+00  0.0000E+00  0.0000E+00  0.0000E+00  0.0000E+00  0.0000E+00  0.0000E+00  0.0000E+00
    -12.857  0.4477E-01  0.4481E-01  0.4486E-02  0.4483E-02  0.6554E-06  0.6566E-06  0.4518E-02  0.4514E-02  0.0000E+00  0.0000E+00  0.0000E+00  0.0000E+00  0.0000E+00  0.0000E+00  0.0000E+00  0.0000E+00  0.0000E+00  0.0000E+00
    -12.725  0.4446E-01  0.4450E-01  0.4713E-02  0.4710E-02  0.6409E-06  0.6422E-06  0.4730E-02  0.4726E-02  0.0000E+00  0.0000E+00  0.0000E+00  0.0000E+00  0.0000E+00  0.0000E+00  0.0000E+00  0.0000E+00  0.0000E+00  0.0000E+00
    -12.594  0.4442E-01  0.4446E-01  0.4921E-02  0.4917E-02  0.6327E-06  0.6340E-06  0.4934E-02  0.4930E-02  0.0000E+00  0.0000E+00  0.0000E+00  0.0000E+00  0.0000E+00  0.0000E+00  0.0000E+00  0.0000E+00  0.0000E+00  0.0000E+00
    -12.462  0.4455E-01  0.4459E-01  0.5119E-02  0.5115E-02  0.6270E-06  0.6283E-06  0.5131E-02  0.5126E-02  0.0000E+00  0.0000E+00  0.0000E+00  0.0000E+00  0.0000E+00  0.0000E+00  0.0000E+00  0.0000E+00  0.0000E+00  0.0000E+00
    -12.330  0.4484E-01  0.4488E-01  0.5307E-02  0.5302E-02  0.6245E-06  0.6259E-06  0.5322E-02  0.5316E-02  0.0000E+00  0.0000E+00  0.0000E+00  0.0000E+00  0.0000E+00  0.0000E+00  0.0000E+00  0.0000E+00  0.0000E+00  0.0000E+00
    -12.198  0.4500E-01  0.4505E-01  0.5510E-02  0.5505E-02  0.6211E-06  0.6224E-06  0.5518E-02  0.5512E-02  0.0000E+00  0.0000E+00  0.0000E+00  0.0000E+00  0.0000E+00  0.0000E+00  0.0000E+00  0.0000E+00  0.0000E+00  0.0000E+00
    -12.067  0.4429E-01  0.4434E-01  0.5808E-02  0.5802E-02  0.5998E-06  0.6012E-06  0.5748E-02  0.5741E-02  0.0000E+00  0.0000E+00  0.0000E+00  0.0000E+00  0.0000E+00  0.0000E+00  0.0000E+00  0.0000E+00  0.0000E+00  0.0000E+00
    -11.935  0.4417E-01  0.4423E-01  0.6027E-02  0.6021E-02  0.5901E-06  0.5916E-06  0.5969E-02  0.5961E-02  0.0000E+00  0.0000E+00  0.0000E+00  0.0000E+00  0.0000E+00  0.0000E+00  0.0000E+00  0.0000E+00  0.0000E+00  0.0000E+00
    -11.803  0.4434E-01  0.4440E-01  0.6220E-02  0.6214E-02  0.5850E-06  0.5865E-06  0.6175E-02  0.6166E-02  0.0000E+00  0.0000E+00  0.0000E+00  0.0000E+00  0.0000E+00  0.0000E+00  0.0000E+00  0.0000E+00  0.0000E+00  0.0000E+00
    -11.671  0.4459E-01  0.4465E-01  0.6405E-02  0.6398E-02  0.5818E-06  0.5833E-06  0.6376E-02  0.6367E-02  0.0000E+00  0.0000E+00  0.0000E+00  0.0000E+00  0.0000E+00  0.0000E+00  0.0000E+00  0.0000E+00  0.0000E+00  0.0000E+00
    -11.539  0.4495E-01  0.4501E-01  0.6586E-02  0.6579E-02  0.5796E-06  0.5812E-06  0.6575E-02  0.6564E-02  0.0000E+00  0.0000E+00  0.0000E+00  0.0000E+00  0.0000E+00  0.0000E+00  0.0000E+00  0.0000E+00  0.0000E+00  0.0000E+00
    -11.408  0.4557E-01  0.4564E-01  0.6755E-02  0.6747E-02  0.5817E-06  0.5833E-06  0.6771E-02  0.6759E-02  0.0000E+00  0.0000E+00  0.0000E+00  0.0000E+00  0.0000E+00  0.0000E+00  0.0000E+00  0.0000E+00  0.0000E+00  0.0000E+00
    -11.276  0.4591E-01  0.4599E-01  0.7003E-02  0.6994E-02  0.5789E-06  0.5806E-06  0.6992E-02  0.6978E-02  0.0000E+00  0.0000E+00  0.0000E+00  0.0000E+00  0.0000E+00  0.0000E+00  0.0000E+00  0.0000E+00  0.0000E+00  0.0000E+00
    -11.144  0.4621E-01  0.4630E-01  0.7324E-02  0.7313E-02  0.5712E-06  0.5730E-06  0.7216E-02  0.7199E-02  0.0000E+00  0.0000E+00  0.0000E+00  0.0000E+00  0.0000E+00  0.0000E+00  0.0000E+00  0.0000E+00  0.0000E+00  0.0000E+00
    -11.012  0.4765E-01  0.4775E-01  0.7587E-02  0.7575E-02  0.5803E-06  0.5822E-06  0.7518E-02  0.7498E-02  0.0000E+00  0.0000E+00  0.0000E+00  0.0000E+00  0.0000E+00  0.0000E+00  0.0000E+00  0.0000E+00  0.0000E+00  0.0000E+00
    -10.881  0.4990E-01  0.5000E-01  0.7866E-02  0.7853E-02  0.5977E-06  0.5998E-06  0.7926E-02  0.7902E-02  0.0000E+00  0.0000E+00  0.0000E+00  0.0000E+00  0.0000E+00  0.0000E+00  0.0000E+00  0.0000E+00  0.0000E+00  0.0000E+00