    4    4  100    2
  0.1028436E+02  0.2467291E-09  0.2467292E-09  0.7803073E-09  0.1500000E-16
   1.0000000000000000E-004
  CAR 
 unknown system                          
     16    111     16
 
  0.3742002E-15  0.3742002E-15  0.3742002E-15  0.7716049E-03
    1      -15.672235    -15.672242   1.000000   1.000000
    2      -15.532056    -15.532062   1.000000   1.000000
    3       -4.270254     -4.270265   1.000000   1.000000
    4       -3.079369     -3.079369   1.000000   1.000000
    5        0.897285      0.897277   1.000000   1.000000
    6        0.897343      0.897335   1.000000   1.000000
    7        0.904795      0.904794   1.000000   1.000000
    8        0.904852      0.904851   1.000000   1.000000
    9        7.576198      7.576328   0.000000   0.000000
   10       12.264377     12.264381   0.000000   0.000000
   11       12.264442     12.264446   0.000000   0.000000
   12       12.292106     12.292105   0.000000   0.000000
   13       12.292171     12.292169   0.000000   0.000000
   14       12.504644     12.504836   0.000000   0.000000
   15       15.325711     15.325652   0.000000   0.000000
   16       15.412301     15.412334   0.000000   0.000000
 
  0.5555556E-01  0.3821610E-15  0.3742002E-15  0.4629630E-02
    1      -15.598859    -15.598866   1.000000   1.000000
    2      -15.459327    -15.459333   1.000000   1.000000
    3       -4.181086     -4.181097   1.000000   1.000000
    4       -2.994410     -2.994409   1.000000   1.000000
    5        0.597458      0.597450   1.000000   1.000000
    6        0.607888      0.607887   1.000000   1.000000
    7        0.739637      0.739631   1.000000   1.000000
    8        0.749058      0.749056   1.000000   1.000000
    9        7.668152      7.668280   0.000000   0.000000
   10       12.305236     12.305250   0.000000   0.000000
   11       12.330137     12.330130   0.000000   0.000000
   12       12.584100     12.584104   0.000000   0.000000
   13       12.585206     12.585387   0.000000   0.000000
   14       12.607441     12.607439   0.000000   0.000000
   15       15.065509     15.065459   0.000000   0.000000
   16       15.162273     15.162315   0.000000   0.000000
 
  0.1111111E+00  0.3889703E-15  0.3742002E-15  0.4629630E-02
    1      -15.379044    -15.379051   1.000000   1.000000
    2      -15.241589    -15.241594   1.000000   1.000000
    3       -3.915419     -3.915433   1.000000   1.000000
    4       -2.740350     -2.740345   1.000000   1.000000
    5       -0.224574     -0.224582   1.000000   1.000000
    6       -0.207363     -0.207364   1.000000   1.000000
    7        0.321673      0.321668   1.000000   1.000000
    8        0.335093      0.335090   1.000000   1.000000
    9        7.944757      7.944882   0.000000   0.000000
   10       12.321123     12.321165   0.000000   0.000000
   11       12.382114     12.382086   0.000000   0.000000
   12       12.816064     12.816180   0.000000   0.000000
   13       13.475955     13.475960   0.000000   0.000000
   14       13.500145     13.500141   0.000000   0.000000
   15       14.325653     14.325733   0.000000   0.000000
   16       14.460845     14.460849   0.000000   0.000000
 
  0.1666667E+00  0.3636087E-15  0.3742002E-15  0.4629630E-02
    1      -15.013898    -15.013906   1.000000   1.000000
    2      -14.879869    -14.879874   1.000000   1.000000
    3       -3.475625     -3.475645   1.000000   1.000000
    4       -2.320923     -2.320914   1.000000   1.000000
    5       -1.406812     -1.406819   1.000000   1.000000
    6       -1.380069     -1.380072   1.000000   1.000000
    7       -0.239942     -0.239945   1.000000   1.000000
    8       -0.223555     -0.223559   1.000000   1.000000
    9        8.406010      8.406128   0.000000   0.000000
   10       12.231591     12.231669   0.000000   0.000000
   11       12.329874     12.329818   0.000000   0.000000
   12       13.085489     13.082318   0.000000   0.000000
   13       13.222498     13.226599   0.000000   0.000000
   14       13.483068     13.482380   0.000000   0.000000
   15       14.816773     14.816779   0.000000   0.000000
   16       14.846004     14.845998   0.000000   0.000000
 
  0.2222222E+00  0.3951816E-15  0.3742002E-15  0.4629630E-02
    1      -14.505417    -14.505425   1.000000   1.000000
    2      -14.376108    -14.376112   1.000000   1.000000
    3       -2.867548     -2.867578   1.000000   1.000000
    4       -2.789243     -2.789252   1.000000   1.000000
    5       -2.753968     -2.753970   1.000000   1.000000
    6       -1.744235     -1.744216   1.000000   1.000000
    7       -0.837589     -0.837592   1.000000   1.000000
    8       -0.818378     -0.818382   1.000000   1.000000
    9        9.049936      9.050041   0.000000   0.000000
   10       11.768625     11.767691   0.000000   0.000000
   11       12.036440     12.036556   0.000000   0.000000
   12       12.046978     12.047858   0.000000   0.000000
   13       12.168655     12.168570   0.000000   0.000000
   14       13.779117     13.779474   0.000000   0.000000
   15       16.465700     16.465707   0.000000   0.000000
   16       16.495220     16.495213   0.000000   0.000000
 
  0.2777778E+00  0.3860699E-15  0.3742002E-15  0.4629630E-02
    1      -13.856677    -13.856686   1.000000   1.000000
    2      -13.733278    -13.733282   1.000000   1.000000
    3       -4.257304     -4.257312   1.000000   1.000000
    4       -4.210380     -4.210382   1.000000   1.000000
    5       -2.100355     -2.100404   1.000000   1.000000
    6       -1.391864     -1.391869   1.000000   1.000000
    7       -1.372574     -1.372576   1.000000   1.000000
    8       -1.023135     -1.023094   1.000000   1.000000
    9        9.872239      9.872319   0.000000   0.000000
   10       10.200310     10.199621   0.000000   0.000000
   11       10.604044     10.604698   0.000000   0.000000
   12       11.796877     11.797038   0.000000   0.000000
   13       11.961658     11.961544   0.000000   0.000000
   14       14.435123     14.435536   0.000000   0.000000
   15       18.330017     18.330028   0.000000   0.000000
   16       18.343984     18.343972   0.000000   0.000000
 
  0.3333333E+00  0.3592851E-15  0.3742002E-15  0.4629630E-02
    1      -13.072713    -13.072723   1.000000   1.000000
    2      -12.956565    -12.956568   1.000000   1.000000
    3       -5.732829     -5.732837   1.000000   1.000000
    4       -5.675613     -5.675616   1.000000   1.000000
    5       -1.858335     -1.858339   1.000000   1.000000
    6       -1.837761     -1.837763   1.000000   1.000000
    7       -1.194896     -1.194984   1.000000   1.000000
    8       -0.185429     -0.185343   1.000000   1.000000
    9        8.595184      8.594518   0.000000   0.000000
   10        9.111263      9.111909   0.000000   0.000000
   11       10.851057     10.851032   0.000000   0.000000
   12       11.571752     11.572056   0.000000   0.000000
   13       11.777257     11.777093   0.000000   0.000000
   14       15.201407     15.201926   0.000000   0.000000
   15       18.966390     18.966674   0.000000   0.000000
   16       20.238629     20.241475   0.000000   0.000000
 
  0.3888889E+00  0.3906177E-15  0.3742002E-15  0.4629630E-02
    1      -12.163160    -12.163175   1.000000   1.000000
    2      -12.055622    -12.055621   1.000000   1.000000
    3       -7.161487     -7.161495   1.000000   1.000000
    4       -7.094079     -7.094081   1.000000   1.000000
    5       -2.206674     -2.206677   1.000000   1.000000
    6       -2.185374     -2.185377   1.000000   1.000000
    7       -0.192667     -0.192852   1.000000   1.000000
    8        0.703996      0.704209   1.000000   1.000000
    9        7.085076      7.084241   0.000000   0.000000
   10        7.674751      7.675547   0.000000   0.000000
   11       11.361961     11.361697   0.000000   0.000000
   12       11.517572     11.517823   0.000000   0.000000
   13       12.147249     12.147353   0.000000   0.000000
   14       16.041288     16.042055   0.000000   0.000000
   15       17.936712     17.936939   0.000000   0.000000
   16       19.836692     19.835448   0.000000   0.000000
 
  0.4444444E+00  0.3934861E-15  0.3742002E-15  0.4629630E-02
    1      -11.157373    -11.157402   1.000000   1.000000
    2      -11.062178    -11.062164   1.000000   1.000000
    3       -8.484842     -8.484856   1.000000   1.000000
    4       -8.411179     -8.411172   1.000000   1.000000
    5       -2.421588     -2.421591   1.000000   1.000000
    6       -2.399973     -2.399976   1.000000   1.000000
    7        0.788249      0.787733   1.000000   1.000000
    8        1.463952      1.464609   1.000000   1.000000
    9        5.892463      5.890997   0.000000   0.000000
   10        6.458124      6.459443   0.000000   0.000000
   11       11.256163     11.256120   0.000000   0.000000
   12       11.443411     11.443429   0.000000   0.000000
   13       13.438366     13.438413   0.000000   0.000000
   14       16.455056     16.455334   0.000000   0.000000
   15       16.894846     16.896328   0.000000   0.000000
   16       18.935086     18.933168   0.000000   0.000000
 
  0.5000000E+00  0.4815189E-15  0.3742002E-15  0.2314815E-02
    1      -10.380354    -10.380560   1.000000   1.000000
    2      -10.330430    -10.330233   1.000000   1.000000
    3       -9.329947     -9.330130   1.000000   1.000000
    4       -9.291386     -9.291219   1.000000   1.000000
    5       -2.494174     -2.494177   1.000000   1.000000
    6       -2.472796     -2.472799   1.000000   1.000000
    7        1.331599      1.330203   1.000000   1.000000
    8        1.730672      1.732364   1.000000   1.000000
    9        5.430497      5.427964   0.000000   0.000000
   10        5.883694      5.885926   0.000000   0.000000
   11       11.218312     11.218296   0.000000   0.000000
   12       11.410335     11.410330   0.000000   0.000000
   13       14.835501     14.832987   0.000000   0.000000
   14       14.974284     14.977112   0.000000   0.000000
   15       17.471728     17.475327   0.000000   0.000000
   16       18.355181     18.351161   0.000000   0.000000
 
  0.5555556E-01  0.5555556E-01  0.3742002E-15  0.4629630E-02
    1      -15.452257    -15.452263   1.000000   1.000000
    2      -15.314092    -15.314097   1.000000   1.000000
    3       -4.003535     -4.003548   1.000000   1.000000
    4       -2.824629     -2.824625   1.000000   1.000000
    5        0.067011      0.066998   1.000000   1.000000
    6        0.076198      0.076201   1.000000   1.000000
    7        0.426944      0.426935   1.000000   1.000000
    8        0.435062      0.435063   1.000000   1.000000
    9        7.852544      7.852670   0.000000   0.000000
   10       12.406957     12.406989   0.000000   0.000000
   11       12.454072     12.454052   0.000000   0.000000
   12       12.742142     12.742286   0.000000   0.000000
   13       13.108587     13.108593   0.000000   0.000000
   14       13.124694     13.124689   0.000000   0.000000
   15       14.569469     14.569451   0.000000   0.000000
   16       14.688454     14.688518   0.000000   0.000000
 
  0.1111111E+00  0.5555556E-01  0.3742002E-15  0.9259259E-02
    1      -15.159783    -15.159790   1.000000   1.000000
    2      -15.024375    -15.024380   1.000000   1.000000
    3       -3.650977     -3.650995   1.000000   1.000000
    4       -2.488079     -2.488072   1.000000   1.000000
    5       -0.883752     -0.883764   1.000000   1.000000
    6       -0.865782     -0.865781   1.000000   1.000000
    7       -0.117510     -0.117518   1.000000   1.000000
    8       -0.104338     -0.104338   1.000000   1.000000
    9        8.222017      8.222138   0.000000   0.000000
   10       12.497809     12.497874   0.000000   0.000000
   11       12.577581     12.577538   0.000000   0.000000
   12       13.039956     13.039773   0.000000   0.000000
   13       13.647675     13.648131   0.000000   0.000000
   14       13.810184     13.810139   0.000000   0.000000
   15       14.022151     14.022160   0.000000   0.000000
   16       14.047284     14.047274   0.000000   0.000000
 
  0.1666667E+00  0.5555556E-01  0.3742002E-15  0.9259259E-02
    1      -14.722982    -14.722990   1.000000   1.000000
    2      -14.591649    -14.591653   1.000000   1.000000
    3       -3.126682     -3.126707   1.000000   1.000000
    4       -2.124801     -2.124812   1.000000   1.000000
    5       -2.096374     -2.096373   1.000000   1.000000
    6       -1.989725     -1.989711   1.000000   1.000000
    7       -0.741516     -0.741522   1.000000   1.000000
    8       -0.723688     -0.723690   1.000000   1.000000
    9        8.775593      8.775706   0.000000   0.000000
   10       12.389822     12.388813   0.000000   0.000000
   11       12.422540     12.422641   0.000000   0.000000
   12       12.538747     12.538674   0.000000   0.000000
   13       12.600834     12.601672   0.000000   0.000000
   14       13.530855     13.531312   0.000000   0.000000
   15       15.305716     15.305737   0.000000   0.000000
   16       15.349561     15.349540   0.000000   0.000000
 
  0.2222222E+00  0.5555556E-01  0.3742002E-15  0.9259259E-02
    1      -14.144361    -14.144370   1.000000   1.000000
    2      -14.018351    -14.018355   1.000000   1.000000
    3       -3.523951     -3.523960   1.000000   1.000000
    4       -3.484150     -3.484152   1.000000   1.000000
    5       -2.438238     -2.438278   1.000000   1.000000
    6       -1.345155     -1.345160   1.000000   1.000000
    7       -1.339347     -1.339318   1.000000   1.000000
    8       -1.324831     -1.324834   1.000000   1.000000
    9        9.510690      9.510788   0.000000   0.000000
   10       10.919968     10.919302   0.000000   0.000000
   11       11.243067     11.243648   0.000000   0.000000
   12       12.229735     12.229872   0.000000   0.000000
   13       12.379234     12.379134   0.000000   0.000000
   14       14.109002     14.109450   0.000000   0.000000
   15       16.802431     16.802490   0.000000   0.000000
   16       16.912118     16.912072   0.000000   0.000000
 
  0.2777778E+00  0.5555556E-01  0.3742002E-15  0.9259259E-02
    1      -13.427905    -13.427915   1.000000   1.000000
    2      -13.308469    -13.308473   1.000000   1.000000
    3       -4.980463     -4.980471   1.000000   1.000000
    4       -4.929262     -4.929264   1.000000   1.000000
    5       -1.871968     -1.871972   1.000000   1.000000
    6       -1.849793     -1.849795   1.000000   1.000000
    7       -1.599944     -1.600009   1.000000   1.000000
    8       -0.556079     -0.556021   1.000000   1.000000
    9        9.348800      9.348191   0.000000   0.000000
   10        9.787780      9.788343   0.000000   0.000000
   11       10.420585     10.420647   0.000000   0.000000
   12       12.000229     12.000421   0.000000   0.000000
   13       12.183623     12.183492   0.000000   0.000000
   14       14.802868     14.803389   0.000000   0.000000
   15       18.153862     18.154028   0.000000   0.000000
   16       18.587711     18.587604   0.000000   0.000000
 
  0.3333333E+00  0.5555556E-01  0.3742002E-15  0.9259259E-02
    1      -12.580456    -12.580468   1.000000   1.000000
    2      -12.468932    -12.468933   1.000000   1.000000
    3       -6.424951     -6.424959   1.000000   1.000000
    4       -6.363069     -6.363071   1.000000   1.000000
    5       -2.288026     -2.288031   1.000000   1.000000
    6       -2.264763     -2.264766   1.000000   1.000000
    7       -0.639007     -0.639133   1.000000   1.000000
    8        0.319591      0.319725   1.000000   1.000000
    9        7.793271      7.792589   0.000000   0.000000
   10        8.331853      8.332496   0.000000   0.000000
   11       11.455299     11.455080   0.000000   0.000000
   12       11.806871     11.807394   0.000000   0.000000
   13       12.039573     12.039374   0.000000   0.000000
   14       15.575520     15.576213   0.000000   0.000000
   15       18.341241     18.341484   0.000000   0.000000
   16       19.893166     19.892283   0.000000   0.000000
 
  0.3888889E+00  0.5555556E-01  0.3742002E-15  0.9259259E-02
    1      -11.617577    -11.617596   1.000000   1.000000
    2      -11.515800    -11.515796   1.000000   1.000000
    3       -7.802471     -7.802480   1.000000   1.000000
    4       -7.731508     -7.731507   1.000000   1.000000
    5       -2.574660     -2.574664   1.000000   1.000000
    6       -2.550065     -2.550068   1.000000   1.000000
    7        0.376626      0.376325   1.000000   1.000000
    8        1.181983      1.182351   1.000000   1.000000
    9        6.414409      6.413383   0.000000   0.000000
   10        6.991103      6.992039   0.000000   0.000000
   11       11.627059     11.626935   0.000000   0.000000
   12       11.809428     11.809524   0.000000   0.000000
   13       12.830397     12.830492   0.000000   0.000000
   14       16.375839     16.376939   0.000000   0.000000
   15       17.216613     17.216859   0.000000   0.000000
   16       19.010732     19.009540   0.000000   0.000000
 
  0.4444444E+00  0.5555556E-01  0.3742002E-15  0.9259259E-02
    1      -10.616744    -10.616810   1.000000   1.000000
    2      -10.536138    -10.536088   1.000000   1.000000
    3       -9.003176     -9.003218   1.000000   1.000000
    4       -8.936035     -8.936002   1.000000   1.000000
    5       -2.720107     -2.720110   1.000000   1.000000
    6       -2.695395     -2.695398   1.000000   1.000000
    7        1.234015      1.233048   1.000000   1.000000
    8        1.739632      1.740845   1.000000   1.000000
    9        5.538428      5.536336   0.000000   0.000000
   10        6.015704      6.017533   0.000000   0.000000
   11       11.552577     11.552550   0.000000   0.000000
   12       11.750925     11.750929   0.000000   0.000000
   13       14.211672     14.211583   0.000000   0.000000
   14       15.721598     15.722012   0.000000   0.000000
   15       17.102056     17.104468   0.000000   0.000000
   16       18.282456     18.280010   0.000000   0.000000
 
  0.1111111E+00  0.1111111E+00  0.3742002E-15  0.4629630E-02
    1      -14.795661    -14.795669   1.000000   1.000000
    2      -14.663636    -14.663640   1.000000   1.000000
    3       -3.213372     -3.213396   1.000000   1.000000
    4       -2.071938     -2.071924   1.000000   1.000000
    5       -1.785561     -1.785583   1.000000   1.000000
    6       -1.769622     -1.769612   1.000000   1.000000
    7       -0.823042     -0.823054   1.000000   1.000000
    8       -0.812579     -0.812575   1.000000   1.000000
    9        8.684560      8.684675   0.000000   0.000000
   10       12.629863     12.629241   0.000000   0.000000
   11       12.820847     12.820955   0.000000   0.000000
   12       12.909956     12.910062   0.000000   0.000000
   13       13.005324     13.005254   0.000000   0.000000
   14       13.411277     13.412078   0.000000   0.000000
   15       14.502808     14.502824   0.000000   0.000000
   16       14.544612     14.544586   0.000000   0.000000
 
  0.1666667E+00  0.1111111E+00  0.3742002E-15  0.9259259E-02
    1      -14.288726    -14.288734   1.000000   1.000000
    2      -14.161398    -14.161402   1.000000   1.000000
    3       -2.928833     -2.928851   1.000000   1.000000
    4       -2.902712     -2.902705   1.000000   1.000000
    5       -2.608205     -2.608239   1.000000   1.000000
    6       -1.569573     -1.569582   1.000000   1.000000
    7       -1.551706     -1.551704   1.000000   1.000000
    8       -1.498835     -1.498810   1.000000   1.000000
    9        9.330906      9.331011   0.000000   0.000000
   10       11.366381     11.365960   0.000000   0.000000
   11       11.605593     11.605812   0.000000   0.000000
   12       13.091417     13.091563   0.000000   0.000000
   13       13.224662     13.224557   0.000000   0.000000
   14       13.899665     13.900243   0.000000   0.000000
   15       15.328371     15.328420   0.000000   0.000000
   16       15.426217     15.426160   0.000000   0.000000
 
  0.2222222E+00  0.1111111E+00  0.3742002E-15  0.9259259E-02
    1      -13.642325    -13.642334   1.000000   1.000000
    2      -13.520925    -13.520928   1.000000   1.000000
    3       -4.249948     -4.249961   1.000000   1.000000
    4       -4.209437     -4.209435   1.000000   1.000000
    5       -2.215090     -2.215095   1.000000   1.000000
    6       -2.190463     -2.190464   1.000000   1.000000
    7       -1.845395     -1.845450   1.000000   1.000000
    8       -0.782060     -0.782015   1.000000   1.000000
    9        9.935717      9.935274   0.000000   0.000000
   10       10.156908     10.156998   0.000000   0.000000
   11       10.263160     10.263482   0.000000   0.000000
   12       12.978519     12.978687   0.000000   0.000000
   13       13.155122     13.154999   0.000000   0.000000
   14       14.488298     14.488927   0.000000   0.000000
   15       16.519466     16.519568   0.000000   0.000000
   16       16.763464     16.763373   0.000000   0.000000
 
  0.2777778E+00  0.1111111E+00  0.3742002E-15  0.9259259E-02
    1      -12.861840    -12.861851   1.000000   1.000000
    2      -12.747658    -12.747661   1.000000   1.000000
    3       -5.642127     -5.642137   1.000000   1.000000
    4       -5.589003     -5.589004   1.000000   1.000000
    5       -2.727693     -2.727698   1.000000   1.000000
    6       -2.699182     -2.699184   1.000000   1.000000
    7       -0.943725     -0.943821   1.000000   1.000000
    8        0.052400      0.052493   1.000000   1.000000
    9        8.438834      8.438334   0.000000   0.000000
   10        8.870674      8.871087   0.000000   0.000000
   11       11.155069     11.155119   0.000000   0.000000
   12       12.783706     12.783920   0.000000   0.000000
   13       12.995606     12.995460   0.000000   0.000000
   14       15.135593     15.136372   0.000000   0.000000
   15       17.592816     17.593005   0.000000   0.000000
   16       18.291734     18.291585   0.000000   0.000000
 
  0.3333333E+00  0.1111111E+00  0.3742002E-15  0.9259259E-02
    1      -11.957484    -11.957499   1.000000   1.000000
    2      -11.851927    -11.851926   1.000000   1.000000
    3       -7.022642     -7.022651   1.000000   1.000000
    4       -6.958254     -6.958255   1.000000   1.000000
    5       -3.098828     -3.098833   1.000000   1.000000
    6       -3.068543     -3.068545   1.000000   1.000000
    7        0.056276      0.056079   1.000000   1.000000
    8        0.943212      0.943437   1.000000   1.000000
    9        6.998683      6.998000   0.000000   0.000000
   10        7.510844      7.511433   0.000000   0.000000
   11       12.281981     12.281699   0.000000   0.000000
   12       12.619997     12.620611   0.000000   0.000000
   13       12.866381     12.866139   0.000000   0.000000
   14       15.786157     15.787210   0.000000   0.000000
   15       17.650172     17.650423   0.000000   0.000000
   16       18.473438     18.472909   0.000000   0.000000
 
  0.3888889E+00  0.1111111E+00  0.3742002E-15  0.9259259E-02
    1      -10.959481    -10.959511   1.000000   1.000000
    2      -10.866257    -10.866243   1.000000   1.000000
    3       -8.316622     -8.316637   1.000000   1.000000
    4       -8.245259     -8.245252   1.000000   1.000000
    5       -3.323573     -3.323578   1.000000   1.000000
    6       -3.292415     -3.292417   1.000000   1.000000
    7        1.042642      1.042102   1.000000   1.000000
    8        1.717495      1.718182   1.000000   1.000000
    9        5.840177      5.838858   0.000000   0.000000
   10        6.331330      6.332447   0.000000   0.000000
   11       12.476164     12.476056   0.000000   0.000000
   12       12.696743     12.696820   0.000000   0.000000
   13       13.690778     13.690820   0.000000   0.000000
   14       16.377367     16.378986   0.000000   0.000000
   15       16.552198     16.552509   0.000000   0.000000
   16       17.779500     17.778624   0.000000   0.000000
 
  0.4444444E+00  0.1111111E+00  0.3742002E-15  0.4629630E-02
    1      -10.192054    -10.192257   1.000000   1.000000
    2      -10.143108    -10.142913   1.000000   1.000000
    3       -9.146185     -9.146367   1.000000   1.000000
    4       -9.109499     -9.109333   1.000000   1.000000
    5       -3.399144     -3.399148   1.000000   1.000000
    6       -3.367549     -3.367551   1.000000   1.000000
    7        1.598223      1.596732   1.000000   1.000000
    8        1.993758      1.995571   1.000000   1.000000
    9        5.391573      5.388935   0.000000   0.000000
   10        5.748571      5.750835   0.000000   0.000000
   11       12.438437     12.438402   0.000000   0.000000
   12       12.669117     12.669124   0.000000   0.000000
   13       15.034472     15.032003   0.000000   0.000000
   14       15.188981     15.191794   0.000000   0.000000
   15       16.727909     16.730721   0.000000   0.000000
   16       17.404520     17.402540   0.000000   0.000000
 
  0.1666667E+00  0.1666667E+00  0.3742002E-15  0.4629630E-02
    1      -13.713985    -13.713994   1.000000   1.000000
    2      -13.591963    -13.591967   1.000000   1.000000
    3       -3.847002     -3.847033   1.000000   1.000000
    4       -3.824071     -3.824051   1.000000   1.000000
    5       -2.490861     -2.490878   1.000000   1.000000
    6       -2.474108     -2.474096   1.000000   1.000000
    7       -1.927685     -1.927736   1.000000   1.000000
    8       -0.857766     -0.857725   1.000000   1.000000
    9       10.068288     10.068384   0.000000   0.000000
   10       10.175893     10.175627   0.000000   0.000000
   11       10.431839     10.431932   0.000000   0.000000
   12       13.887337     13.887615   0.000000   0.000000
   13       14.037687     14.037468   0.000000   0.000000
   14       14.363010     14.363715   0.000000   0.000000
   15       15.445122     15.445246   0.000000   0.000000
   16       15.541778     15.541639   0.000000   0.000000
 
  0.2222222E+00  0.1666667E+00  0.3742002E-15  0.9259259E-02
    1      -13.003375    -13.003385   1.000000   1.000000
    2      -12.887918    -12.887920   1.000000   1.000000
    3       -4.966050     -4.966073   1.000000   1.000000
    4       -4.930309     -4.930297   1.000000   1.000000
    5       -3.259607     -3.259619   1.000000   1.000000
    6       -3.234710     -3.234703   1.000000   1.000000
    7       -1.098339     -1.098422   1.000000   1.000000
    8       -0.084610     -0.084532   1.000000   1.000000
    9        8.857940      8.857683   0.000000   0.000000
   10        9.168420      9.168529   0.000000   0.000000
   11       10.981234     10.981311   0.000000   0.000000
   12       14.103637     14.103903   0.000000   0.000000
   13       14.331705     14.331497   0.000000   0.000000
   14       14.856286     14.857184   0.000000   0.000000
   15       16.173767     16.173903   0.000000   0.000000
   16       16.491570     16.491444   0.000000   0.000000
 
  0.2777778E+00  0.1666667E+00  0.3742002E-15  0.9259259E-02
    1      -12.164659    -12.164673   1.000000   1.000000
    2      -12.057077    -12.057078   1.000000   1.000000
    3       -6.229107     -6.229122   1.000000   1.000000
    4       -6.176714     -6.176709   1.000000   1.000000
    5       -3.797434     -3.797441   1.000000   1.000000
    6       -3.763841     -3.763840   1.000000   1.000000
    7       -0.145249     -0.145400   1.000000   1.000000
    8        0.786216      0.786376   1.000000   1.000000
    9        7.497288      7.496952   0.000000   0.000000
   10        7.888339      7.888534   0.000000   0.000000
   11       12.060425     12.060458   0.000000   0.000000
   12       13.967525     13.967779   0.000000   0.000000
   13       14.251026     14.250847   0.000000   0.000000
   14       15.309401     15.310542   0.000000   0.000000
   15       17.077078     17.077285   0.000000   0.000000
   16       17.955533     17.918664   0.000000   0.000000
 
  0.3333333E+00  0.1666667E+00  0.3742002E-15  0.9259259E-02
    1      -11.214820    -11.214840   1.000000   1.000000
    2      -11.116958    -11.116952   1.000000   1.000000
    3       -7.510608     -7.510621   1.000000   1.000000
    4       -7.446260     -7.446256   1.000000   1.000000
    5       -4.136604     -4.136609   1.000000   1.000000
    6       -4.098959     -4.098961   1.000000   1.000000
    7        0.871685      0.871345   1.000000   1.000000
    8        1.662885      1.663299   1.000000   1.000000
    9        6.230569      6.229955   0.000000   0.000000
   10        6.668759      6.669184   0.000000   0.000000
   11       13.277466     13.277262   0.000000   0.000000
   12       13.824789     13.825286   0.000000   0.000000
   13       14.136775     14.136539   0.000000   0.000000
   14       15.672934     15.674330   0.000000   0.000000
   15       17.045176     17.044964   0.000000   0.000000
   16       17.074278     17.074578   0.000000   0.000000
 
  0.3888889E+00  0.1666667E+00  0.3742002E-15  0.9259259E-02
    1      -10.232916    -10.232983   1.000000   1.000000
    2      -10.155721    -10.155670   1.000000   1.000000
    3       -8.658879     -8.658921   1.000000   1.000000
    4       -8.596582     -8.596549   1.000000   1.000000
    5       -4.301843     -4.301847   1.000000   1.000000
    6       -4.262800     -4.262802   1.000000   1.000000
    7        1.754531      1.753443   1.000000   1.000000
    8        2.259211      2.260587   1.000000   1.000000
    9        5.396618      5.394813   0.000000   0.000000
   10        5.711165      5.712575   0.000000   0.000000
   11       13.723744     13.723570   0.000000   0.000000
   12       14.028341     14.028482   0.000000   0.000000
   13       14.674198     14.674060   0.000000   0.000000
   14       15.950009     15.951884   0.000000   0.000000
   15       16.032249     16.032770   0.000000   0.000000
   16       16.538032     16.537505   0.000000   0.000000
 
  0.2222222E+00  0.2222222E+00  0.3742002E-15  0.4629630E-02