       N       E                     dE             d eps       ncg     rms          rms(c)
DAV:   1    -0.309809205783E+03   -0.30981E+03   -0.12067E+04 10632   0.828E+02
DAV:   2    -0.373415336479E+03   -0.63606E+02   -0.57994E+02 10248   0.215E+02
DAV:   3    -0.376253428409E+03   -0.28381E+01   -0.28131E+01  9000   0.444E+01
DAV:   4    -0.376360508406E+03   -0.10708E+00   -0.10705E+00 10296   0.823E+00
DAV:   5    -0.376362043256E+03   -0.15348E-02   -0.15350E-02  9184   0.837E-01    0.496E+01
DAV:   6    -0.177896888841E+03    0.19847E+03   -0.48649E+01  7104   0.452E+01    0.296E+01
DAV:   7    -0.380579364249E+02    0.13984E+03   -0.20988E+02  9152   0.774E+01    0.104E+01
DAV:   8    -0.380100700183E+02    0.47866E-01   -0.71507E+00  9200   0.165E+01    0.426E+00
DAV:   9    -0.368384570266E+02    0.11716E+01   -0.19848E+00  9160   0.854E+00    0.109E+00
DAV:  10    -0.368630312341E+02   -0.24574E-01   -0.15120E-01  7672   0.306E+00    0.445E-01
DAV:  11    -0.368876228767E+02   -0.24592E-01   -0.79248E-02  7360   0.222E+00    0.344E-01
DAV:  12    -0.369112402149E+02   -0.23617E-01   -0.11879E-02  7368   0.102E+00    0.158E-01
DAV:  13    -0.369114006627E+02   -0.16045E-03   -0.32405E-03  8080   0.415E-01    0.430E-02
DAV:  14    -0.369116144769E+02   -0.21381E-03   -0.38805E-04  8168   0.154E-01    0.240E-02
DAV:  15    -0.369116488887E+02   -0.34412E-04   -0.25859E-05  8104   0.429E-02    0.164E-02
DAV:  16    -0.369116812692E+02   -0.32381E-04   -0.31780E-05  7464   0.436E-02    0.361E-03
DAV:  17    -0.369116840100E+02   -0.27408E-05   -0.52861E-06  8352   0.145E-02    0.165E-03
DAV:  18    -0.369116842080E+02   -0.19801E-06   -0.32162E-07  6104   0.467E-03
   1 F= -.36911684E+02 E0= -.36911684E+02  d E =-.369117E+02  mag=     0.0000
       N       E                     dE             d eps       ncg     rms          rms(c)
DAV:   1    -0.369118472526E+02   -0.16324E-03   -0.10472E-04  7976   0.756E-02    0.810E-03
DAV:   2    -0.369118454176E+02    0.18349E-05   -0.26005E-06  9040   0.102E-02    0.423E-03
DAV:   3    -0.369118449303E+02    0.48729E-06   -0.17313E-06  8144   0.781E-03
   2 F= -.36911845E+02 E0= -.36911845E+02  d E =-.160722E-03  mag=     0.0000
       N       E                     dE             d eps       ncg     rms          rms(c)
DAV:   1    -0.369122928230E+02   -0.44741E-03   -0.96452E-04  7960   0.230E-01    0.255E-02
DAV:   2    -0.369122732020E+02    0.19621E-04   -0.24736E-05  8888   0.311E-02    0.133E-02
DAV:   3    -0.369122665376E+02    0.66644E-05   -0.17229E-05  8512   0.244E-02    0.121E-03
DAV:   4    -0.369122667153E+02   -0.17771E-06   -0.38667E-07  5592   0.410E-03
   3 F= -.36912267E+02 E0= -.36912267E+02  d E =-.582507E-03  mag=     0.0000
       N       E                     dE             d eps       ncg     rms          rms(c)
DAV:   1    -0.369129480144E+02   -0.68148E-03   -0.38660E-03  7912   0.461E-01    0.512E-02
DAV:   2    -0.369128690363E+02    0.78978E-04   -0.99249E-05  8872   0.625E-02    0.266E-02
DAV:   3    -0.369128412118E+02    0.27824E-04   -0.68879E-05  8520   0.490E-02    0.235E-03
DAV:   4    -0.369128416271E+02   -0.41529E-06   -0.16204E-06  8096   0.820E-03
   4 F= -.36912842E+02 E0= -.36912842E+02  d E =-.115742E-02  mag=     0.0000
       N       E                     dE             d eps       ncg     rms          rms(c)
DAV:   1    -0.369133411830E+02   -0.49997E-03   -0.15509E-02  7896   0.925E-01    0.103E-01
DAV:   2    -0.369130237060E+02    0.31748E-03   -0.39962E-04  8840   0.125E-01    0.534E-02
DAV:   3    -0.369129095294E+02    0.11418E-03   -0.27599E-04  8504   0.982E-02    0.472E-03
DAV:   4    -0.369129106272E+02   -0.10978E-05   -0.65904E-06  8472   0.165E-02    0.219E-03
DAV:   5    -0.369129108535E+02   -0.22631E-06   -0.34615E-07  6056   0.515E-03
   5 F= -.36912911E+02 E0= -.36912911E+02  d E =-.122665E-02  mag=     0.0000
       N       E                     dE             d eps       ncg     rms          rms(c)
DAV:   1    -0.369137383466E+02   -0.82772E-03   -0.47334E-03  7144   0.492E-01    0.403E-02
DAV:   2    -0.369136744763E+02    0.63870E-04   -0.10807E-04  9648   0.637E-02    0.248E-02
DAV:   3    -0.369136373173E+02    0.37159E-04   -0.78583E-05  8760   0.536E-02    0.512E-03
DAV:   4    -0.369136374172E+02   -0.99923E-07   -0.35364E-06  8520   0.116E-02
   6 F= -.36913637E+02 E0= -.36913637E+02  d E =-.726564E-03  mag=     0.0000
       N       E                     dE             d eps       ncg     rms          rms(c)
DAV:   1    -0.369148175948E+02   -0.11803E-02   -0.23697E-02  7136   0.110E+00    0.899E-02
DAV:   2    -0.369145035647E+02    0.31403E-03   -0.54435E-04  9672   0.143E-01    0.552E-02
DAV:   3    -0.369143229762E+02    0.18059E-03   -0.39164E-04  8744   0.120E-01    0.115E-02
DAV:   4    -0.369143236881E+02   -0.71184E-06   -0.17636E-05  8560   0.259E-02    0.929E-03
DAV:   5    -0.369143181112E+02    0.55769E-05   -0.57538E-06  8072   0.171E-02    0.306E-03
DAV:   6    -0.369143225703E+02   -0.44591E-05   -0.39686E-07  5696   0.598E-03    0.137E-03
DAV:   7    -0.369143226717E+02   -0.10139E-06   -0.44210E-08  3720   0.152E-03
   7 F= -.36914323E+02 E0= -.36914323E+02  d E =-.141182E-02  mag=     0.0000
       N       E                     dE             d eps       ncg     rms          rms(c)
DAV:   1    -0.369149416294E+02   -0.61906E-03   -0.55446E-03  7536   0.491E-01    0.520E-02
DAV:   2    -0.369148153996E+02    0.12623E-03   -0.15671E-04  7624   0.797E-02    0.293E-02
DAV:   3    -0.369147590055E+02    0.56394E-04   -0.14612E-04  8304   0.716E-02    0.585E-03
DAV:   4    -0.369147592783E+02   -0.27276E-06   -0.51388E-06  8328   0.144E-02
   8 F= -.36914759E+02 E0= -.36914759E+02  d E =-.436607E-03  mag=     0.0000
       N       E                     dE             d eps       ncg     rms          rms(c)
DAV:   1    -0.369176379344E+02   -0.28789E-02   -0.50385E-02  7520   0.148E+00    0.156E-01
DAV:   2    -0.369165066713E+02    0.11313E-02   -0.14218E-03  7616   0.240E-01    0.877E-02
DAV:   3    -0.369160012570E+02    0.50541E-03   -0.13064E-03  8288   0.214E-01    0.174E-02
DAV:   4    -0.369160033397E+02   -0.20827E-05   -0.46025E-05  8344   0.430E-02    0.140E-02
DAV:   5    -0.369160014652E+02    0.18745E-05   -0.60328E-06  7616   0.188E-02    0.331E-03
DAV:   6    -0.369160021011E+02   -0.63587E-06   -0.11635E-06  6944   0.848E-03
   9 F= -.36916002E+02 E0= -.36916002E+02  d E =-.167943E-02  mag=     0.0000
       N       E                     dE             d eps       ncg     rms          rms(c)
DAV:   1    -0.369248776439E+02   -0.88762E-02   -0.20300E-01  7520   0.298E+00    0.317E-01
DAV:   2    -0.369202452926E+02    0.46324E-02   -0.57757E-03  7656   0.484E-01    0.178E-01
DAV:   3    -0.369181921030E+02    0.20532E-02   -0.52680E-03  8272   0.432E-01    0.344E-02
DAV:   4    -0.369181998552E+02   -0.77522E-05   -0.18892E-04  8312   0.869E-02    0.270E-02
DAV:   5    -0.369181932857E+02    0.65695E-05   -0.24234E-05  7672   0.378E-02    0.522E-03
DAV:   6    -0.369181956502E+02   -0.23645E-05   -0.41597E-06  9000   0.148E-02    0.525E-03
DAV:   7    -0.369181960262E+02   -0.37602E-06   -0.35425E-07  5176   0.391E-03
  10 F= -.36918196E+02 E0= -.36918196E+02  d E =-.387335E-02  mag=     0.0000
       N       E                     dE             d eps       ncg     rms          rms(c)
DAV:   1    -0.369482873889E+02   -0.30092E-01   -0.82504E-01  7488   0.604E+00    0.638E-01
DAV:   2    -0.369296368221E+02    0.18651E-01   -0.23580E-02  7624   0.979E-01    0.357E-01
DAV:   3    -0.369214155119E+02    0.82213E-02   -0.20744E-02  8216   0.863E-01    0.673E-02
DAV:   4    -0.369214441875E+02   -0.28676E-04   -0.76923E-04  8304   0.175E-01    0.506E-02
DAV:   5    -0.369214237671E+02    0.20420E-04   -0.97160E-05  7560   0.761E-02    0.784E-03
DAV:   6    -0.369214295541E+02   -0.57870E-05   -0.77101E-06  9312   0.205E-02    0.746E-03
DAV:   7    -0.369214310761E+02   -0.15220E-05   -0.24211E-06  7728   0.987E-03    0.162E-03
DAV:   8    -0.369214315412E+02   -0.46514E-06   -0.45507E-07  5200   0.490E-03
  11 F= -.36921432E+02 E0= -.36921432E+02  d E =-.710887E-02  mag=     0.0000
       N       E                     dE             d eps       ncg     rms          rms(c)
DAV:   1    -0.370338224009E+02   -0.11239E+00   -0.34262E+00  7296   0.124E+01    0.131E+00
DAV:   2    -0.369567595267E+02    0.77063E-01   -0.99512E-02  7512   0.202E+00    0.729E-01
DAV:   3    -0.369233877619E+02    0.33372E-01   -0.81833E-02  8184   0.174E+00    0.129E-01
DAV:   4    -0.369234940568E+02   -0.10629E-03   -0.32403E-03  8264   0.356E-01    0.867E-02
DAV:   5    -0.369234452725E+02    0.48784E-04   -0.33956E-04  7584   0.144E-01    0.105E-02
DAV:   6    -0.369234545886E+02   -0.93161E-05   -0.92043E-06  9728   0.218E-02    0.806E-03
DAV:   7    -0.369234606103E+02   -0.60217E-05   -0.49772E-06  7352   0.148E-02    0.249E-03
DAV:   8    -0.369234613886E+02   -0.77835E-06   -0.46669E-07  6344   0.583E-03
  12 F= -.36923461E+02 E0= -.36923461E+02  d E =-.913872E-02  mag=     0.0000
       N       E                     dE             d eps       ncg     rms          rms(c)
DAV:   1    -0.369223713922E+02    0.10892E-02   -0.22272E-02  8264   0.122E+00    0.100E-01
DAV:   2    -0.369222416491E+02    0.12974E-03   -0.33817E-04  8904   0.119E-01    0.598E-02
DAV:   3    -0.369221550894E+02    0.86560E-04   -0.66661E-05  8384   0.550E-02    0.323E-03
DAV:   4    -0.369221547554E+02    0.33399E-06   -0.14248E-06  8232   0.798E-03
  13 F= -.36922155E+02 E0= -.36922155E+02  d E =0.130663E-02  mag=     0.0000
       N       E                     dE             d eps       ncg     rms          rms(c)
DAV:   1    -0.369236533161E+02   -0.14982E-02   -0.15330E-02  8296   0.101E+00    0.829E-02
DAV:   2    -0.369235691685E+02    0.84148E-04   -0.23791E-04  8880   0.994E-02    0.495E-02
DAV:   3    -0.369235177442E+02    0.51424E-04   -0.44967E-05  8440   0.453E-02    0.260E-03
DAV:   4    -0.369235177514E+02   -0.72174E-08   -0.95013E-07  6928   0.656E-03
  14 F= -.36923518E+02 E0= -.36923518E+02  d E =-.563628E-04  mag=     0.0000
