PROCAR lm decomposed
# of k-points:  111         # of bands:   16         # of ions:    4

 k-point     1 :    0.00000000 0.00000000 0.00000000     weight = 0.00077160

band     1 # energy  -15.67223518 # occ.  1.00000000
 
ion      s     py     pz     px    dxy    dyz    dz2    dxz  x2-y2    tot
    1  0.160  0.000  0.000  0.000  0.000  0.000  0.000  0.000  0.000  0.160
    2  0.160  0.000  0.000  0.000  0.000  0.000  0.000  0.000  0.000  0.160
    3  0.160  0.000  0.000  0.000  0.000  0.000  0.000  0.000  0.000  0.160
    4  0.160  0.000  0.000  0.000  0.000  0.000  0.000  0.000  0.000  0.160
tot    0.640  0.000  0.000  0.000  0.000  0.000  0.000  0.000  0.000  0.640
 
band     2 # energy  -15.53205624 # occ.  1.00000000
 
ion      s     py     pz     px    dxy    dyz    dz2    dxz  x2-y2    tot
    1  0.163  0.000  0.000  0.000  0.000  0.000  0.000  0.000  0.000  0.163
    2  0.163  0.000  0.000  0.000  0.000  0.000  0.000  0.000  0.000  0.163
    3  0.163  0.000  0.000  0.000  0.000  0.000  0.000  0.000  0.000  0.163
    4  0.163  0.000  0.000  0.000  0.000  0.000  0.000  0.000  0.000  0.163
tot    0.652  0.000  0.000  0.000  0.000  0.000  0.000  0.000  0.000  0.652
 
band     3 # energy   -4.27025447 # occ.  1.00000000
 
ion      s     py     pz     px    dxy    dyz    dz2    dxz  x2-y2    tot
    1  0.000  0.000  0.099  0.000  0.000  0.000  0.000  0.000  0.000  0.099
    2  0.000  0.000  0.099  0.000  0.000  0.000  0.000  0.000  0.000  0.099
    3  0.000  0.000  0.099  0.000  0.000  0.000  0.000  0.000  0.000  0.099
    4  0.000  0.000  0.099  0.000  0.000  0.000  0.000  0.000  0.000  0.099
tot    0.000  0.000  0.395  0.000  0.000  0.000  0.000  0.000  0.000  0.395
 
band     4 # energy   -3.07936934 # occ.  1.00000000
 
ion      s     py     pz     px    dxy    dyz    dz2    dxz  x2-y2    tot
    1  0.000  0.000  0.120  0.000  0.000  0.000  0.000  0.000  0.000  0.120
    2  0.000  0.000  0.120  0.000  0.000  0.000  0.000  0.000  0.000  0.120
    3  0.000  0.000  0.120  0.000  0.000  0.000  0.000  0.000  0.000  0.120
    4  0.000  0.000  0.120  0.000  0.000  0.000  0.000  0.000  0.000  0.120
tot    0.000  0.000  0.480  0.000  0.000  0.000  0.000  0.000  0.000  0.480
 
band     5 # energy    0.89728517 # occ.  1.00000000
 
ion      s     py     pz     px    dxy    dyz    dz2    dxz  x2-y2    tot
    1  0.000  0.051  0.000  0.156  0.000  0.000  0.000  0.000  0.000  0.207
    2  0.000  0.051  0.000  0.156  0.000  0.000  0.000  0.000  0.000  0.207
    3  0.000  0.051  0.000  0.156  0.000  0.000  0.000  0.000  0.000  0.206
    4  0.000  0.051  0.000  0.156  0.000  0.000  0.000  0.000  0.000  0.206
tot    0.000  0.202  0.000  0.623  0.000  0.000  0.000  0.000  0.000  0.826
 
band     6 # energy    0.89734298 # occ.  1.00000000
 
ion      s     py     pz     px    dxy    dyz    dz2    dxz  x2-y2    tot
    1  0.000  0.156  0.000  0.051  0.000  0.000  0.000  0.000  0.000  0.207
    2  0.000  0.156  0.000  0.051  0.000  0.000  0.000  0.000  0.000  0.206
    3  0.000  0.156  0.000  0.051  0.000  0.000  0.000  0.000  0.000  0.206
    4  0.000  0.156  0.000  0.051  0.000  0.000  0.000  0.000  0.000  0.206
tot    0.000  0.623  0.000  0.202  0.000  0.000  0.000  0.000  0.000  0.826
 
band     7 # energy    0.90479466 # occ.  1.00000000
 
ion      s     py     pz     px    dxy    dyz    dz2    dxz  x2-y2    tot
    1  0.000  0.051  0.000  0.156  0.000  0.000  0.000  0.000  0.000  0.207
    2  0.000  0.051  0.000  0.156  0.000  0.000  0.000  0.000  0.000  0.207
    3  0.000  0.051  0.000  0.156  0.000  0.000  0.000  0.000  0.000  0.207
    4  0.000  0.051  0.000  0.156  0.000  0.000  0.000  0.000  0.000  0.207
tot    0.000  0.202  0.000  0.624  0.000  0.000  0.000  0.000  0.000  0.826
 
band     8 # energy    0.90485244 # occ.  1.00000000
 
ion      s     py     pz     px    dxy    dyz    dz2    dxz  x2-y2    tot
    1  0.000  0.156  0.000  0.051  0.000  0.000  0.000  0.000  0.000  0.206
    2  0.000  0.156  0.000  0.051  0.000  0.000  0.000  0.000  0.000  0.207
    3  0.000  0.156  0.000  0.051  0.000  0.000  0.000  0.000  0.000  0.207
    4  0.000  0.156  0.000  0.051  0.000  0.000  0.000  0.000  0.000  0.207
tot    0.000  0.624  0.000  0.202  0.000  0.000  0.000  0.000  0.000  0.826
 
band     9 # energy    7.57619788 # occ.  0.00000000
 
ion      s     py     pz     px    dxy    dyz    dz2    dxz  x2-y2    tot
    1  0.017  0.000  0.000  0.000  0.000  0.000  0.000  0.000  0.000  0.017
    2  0.017  0.000  0.000  0.000  0.000  0.000  0.000  0.000  0.000  0.017
    3  0.017  0.000  0.000  0.000  0.000  0.000  0.000  0.000  0.000  0.017
    4  0.017  0.000  0.000  0.000  0.000  0.000  0.000  0.000  0.000  0.017
tot    0.067  0.000  0.000  0.000  0.000  0.000  0.000  0.000  0.000  0.067
 
band    10 # energy   12.26437740 # occ.  0.00000000
 
ion      s     py     pz     px    dxy    dyz    dz2    dxz  x2-y2    tot
    1  0.000  0.105  0.000  0.027  0.000  0.000  0.000  0.000  0.000  0.132
    2  0.000  0.105  0.000  0.027  0.000  0.000  0.000  0.000  0.000  0.132
    3  0.000  0.104  0.000  0.027  0.000  0.000  0.000  0.000  0.000  0.131
    4  0.000  0.104  0.000  0.027  0.000  0.000  0.000  0.000  0.000  0.131
tot    0.000  0.416  0.000  0.109  0.000  0.000  0.000  0.000  0.000  0.525
 
band    11 # energy   12.26444191 # occ.  0.00000000
 
ion      s     py     pz     px    dxy    dyz    dz2    dxz  x2-y2    tot
    1  0.000  0.027  0.000  0.105  0.000  0.000  0.000  0.000  0.000  0.132
    2  0.000  0.027  0.000  0.105  0.000  0.000  0.000  0.000  0.000  0.132
    3  0.000  0.027  0.000  0.104  0.000  0.000  0.000  0.000  0.000  0.131
    4  0.000  0.027  0.000  0.104  0.000  0.000  0.000  0.000  0.000  0.131
tot    0.000  0.109  0.000  0.416  0.000  0.000  0.000  0.000  0.000  0.525
 
band    12 # energy   12.29210633 # occ.  0.00000000
 
ion      s     py     pz     px    dxy    dyz    dz2    dxz  x2-y2    tot
    1  0.000  0.104  0.000  0.027  0.000  0.000  0.000  0.000  0.000  0.131
    2  0.000  0.104  0.000  0.027  0.000  0.000  0.000  0.000  0.000  0.131
    3  0.000  0.105  0.000  0.027  0.000  0.000  0.000  0.000  0.000  0.133
    4  0.000  0.105  0.000  0.027  0.000  0.000  0.000  0.000  0.000  0.132
tot    0.000  0.418  0.000  0.109  0.000  0.000  0.000  0.000  0.000  0.527
 
band    13 # energy   12.29217072 # occ.  0.00000000
 
ion      s     py     pz     px    dxy    dyz    dz2    dxz  x2-y2    tot
    1  0.000  0.027  0.000  0.104  0.000  0.000  0.000  0.000  0.000  0.131
    2  0.000  0.027  0.000  0.104  0.000  0.000  0.000  0.000  0.000  0.131
    3  0.000  0.027  0.000  0.105  0.000  0.000  0.000  0.000  0.000  0.132
    4  0.000  0.027  0.000  0.105  0.000  0.000  0.000  0.000  0.000  0.133
tot    0.000  0.109  0.000  0.418  0.000  0.000  0.000  0.000  0.000  0.527
 
band    14 # energy   12.50464439 # occ.  0.00000000
 
ion      s     py     pz     px    dxy    dyz    dz2    dxz  x2-y2    tot
    1  0.000  0.000  0.061  0.000  0.000  0.000  0.000  0.000  0.000  0.061
    2  0.000  0.000  0.061  0.000  0.000  0.000  0.000  0.000  0.000  0.061
    3  0.000  0.000  0.061  0.000  0.000  0.000  0.000  0.000  0.000  0.061
    4  0.000  0.000  0.061  0.000  0.000  0.000  0.000  0.000  0.000  0.061
tot    0.000  0.000  0.245  0.000  0.000  0.000  0.000  0.000  0.000  0.245
 
band    15 # energy   15.32571079 # occ.  0.00000000
 
ion      s     py     pz     px    dxy    dyz    dz2    dxz  x2-y2    tot
    1  0.000  0.000  0.194  0.000  0.000  0.000  0.000  0.000  0.000  0.194
    2  0.000  0.000  0.194  0.000  0.000  0.000  0.000  0.000  0.000  0.194
    3  0.000  0.000  0.194  0.000  0.000  0.000  0.000  0.000  0.000  0.194
    4  0.000  0.000  0.194  0.000  0.000  0.000  0.000  0.000  0.000  0.194
tot    0.000  0.000  0.777  0.000  0.000  0.000  0.000  0.000  0.000  0.777
 
band    16 # energy   15.41230081 # occ.  0.00000000
 
ion      s     py     pz     px    dxy    dyz    dz2    dxz  x2-y2    tot
    1  0.000  0.000  0.196  0.000  0.000  0.000  0.000  0.000  0.000  0.196
    2  0.000  0.000  0.196  0.000  0.000  0.000  0.000  0.000  0.000  0.196
    3  0.000  0.000  0.196  0.000  0.000  0.000  0.000  0.000  0.000  0.196
    4  0.000  0.000  0.196  0.000  0.000  0.000  0.000  0.000  0.000  0.196
tot    0.000  0.000  0.785  0.000  0.000  0.000  0.000  0.000  0.000  0.785
 

 k-point     2 :    0.05555556 0.00000000 0.00000000     weight = 0.00462963

band     1 # energy  -15.59885921 # occ.  1.00000000
 
ion      s     py     pz     px    dxy    dyz    dz2    dxz  x2-y2    tot
    1  0.159  0.000  0.000  0.001  0.000  0.000  0.000  0.000  0.000  0.160
    2  0.159  0.000  0.000  0.001  0.000  0.000  0.000  0.000  0.000  0.160
    3  0.159  0.000  0.000  0.001  0.000  0.000  0.000  0.000  0.000  0.160
    4  0.159  0.000  0.000  0.001  0.000  0.000  0.000  0.000  0.000  0.160
tot    0.638  0.001  0.000  0.002  0.000  0.000  0.000  0.000  0.000  0.641
 
band     2 # energy  -15.45932723 # occ.  1.00000000
 
ion      s     py     pz     px    dxy    dyz    dz2    dxz  x2-y2    tot
    1  0.162  0.000  0.000  0.001  0.000  0.000  0.000  0.000  0.000  0.163
    2  0.163  0.000  0.000  0.001  0.000  0.000  0.000  0.000  0.000  0.163
    3  0.162  0.000  0.000  0.001  0.000  0.000  0.000  0.000  0.000  0.163
    4  0.162  0.000  0.000  0.001  0.000  0.000  0.000  0.000  0.000  0.163
tot    0.650  0.001  0.000  0.002  0.000  0.000  0.000  0.000  0.000  0.653
 
band     3 # energy   -4.18108620 # occ.  1.00000000
 
ion      s     py     pz     px    dxy    dyz    dz2    dxz  x2-y2    tot
    1  0.000  0.000  0.099  0.000  0.000  0.000  0.000  0.000  0.000  0.099
    2  0.000  0.000  0.099  0.000  0.000  0.000  0.000  0.000  0.000  0.099
    3  0.000  0.000  0.099  0.000  0.000  0.000  0.000  0.000  0.000  0.099
    4  0.000  0.000  0.099  0.000  0.000  0.000  0.000  0.000  0.000  0.099
tot    0.000  0.000  0.395  0.000  0.000  0.000  0.000  0.000  0.000  0.395
 
band     4 # energy   -2.99441032 # occ.  1.00000000
 
ion      s     py     pz     px    dxy    dyz    dz2    dxz  x2-y2    tot
    1  0.000  0.000  0.120  0.000  0.000  0.000  0.000  0.000  0.000  0.120
    2  0.000  0.000  0.120  0.000  0.000  0.000  0.000  0.000  0.000  0.120
    3  0.000  0.000  0.120  0.000  0.000  0.000  0.000  0.000  0.000  0.120
    4  0.000  0.000  0.120  0.000  0.000  0.000  0.000  0.000  0.000  0.120
tot    0.000  0.000  0.480  0.000  0.000  0.000  0.000  0.000  0.000  0.480
 
band     5 # energy    0.59745783 # occ.  1.00000000
 
ion      s     py     pz     px    dxy    dyz    dz2    dxz  x2-y2    tot
    1  0.004  0.050  0.000  0.151  0.000  0.000  0.000  0.000  0.000  0.205
    2  0.004  0.050  0.000  0.151  0.000  0.000  0.000  0.000  0.000  0.205
    3  0.004  0.050  0.000  0.150  0.000  0.000  0.000  0.000  0.000  0.205
    4  0.004  0.050  0.000  0.150  0.000  0.000  0.000  0.000  0.000  0.205
tot    0.017  0.200  0.000  0.602  0.000  0.000  0.000  0.000  0.000  0.820
 
band     6 # energy    0.60788805 # occ.  1.00000000
 
ion      s     py     pz     px    dxy    dyz    dz2    dxz  x2-y2    tot
    1  0.004  0.050  0.000  0.151  0.000  0.000  0.000  0.000  0.000  0.205
    2  0.004  0.050  0.000  0.151  0.000  0.000  0.000  0.000  0.000  0.205
    3  0.004  0.050  0.000  0.151  0.000  0.000  0.000  0.000  0.000  0.205
    4  0.004  0.050  0.000  0.151  0.000  0.000  0.000  0.000  0.000  0.205
tot    0.017  0.201  0.000  0.603  0.000  0.000  0.000  0.000  0.000  0.821
 
band     7 # energy    0.73963742 # occ.  1.00000000
 
ion      s     py     pz     px    dxy    dyz    dz2    dxz  x2-y2    tot
    1  0.000  0.154  0.000  0.051  0.000  0.000  0.000  0.000  0.000  0.206
    2  0.000  0.154  0.000  0.051  0.000  0.000  0.000  0.000  0.000  0.206
    3  0.000  0.154  0.000  0.051  0.000  0.000  0.000  0.000  0.000  0.205
    4  0.000  0.154  0.000  0.051  0.000  0.000  0.000  0.000  0.000  0.205
tot    0.000  0.616  0.000  0.205  0.000  0.000  0.000  0.000  0.000  0.822
 
band     8 # energy    0.74905778 # occ.  1.00000000
 
ion      s     py     pz     px    dxy    dyz    dz2    dxz  x2-y2    tot
    1  0.000  0.154  0.000  0.051  0.000  0.000  0.000  0.000  0.000  0.206
    2  0.000  0.154  0.000  0.051  0.000  0.000  0.000  0.000  0.000  0.206
    3  0.000  0.154  0.000  0.051  0.000  0.000  0.000  0.000  0.000  0.206
    4  0.000  0.154  0.000  0.051  0.000  0.000  0.000  0.000  0.000  0.206
tot    0.000  0.617  0.000  0.206  0.000  0.000  0.000  0.000  0.000  0.823
 
band     9 # energy    7.66815167 # occ.  0.00000000
 
ion      s     py     pz     px    dxy    dyz    dz2    dxz  x2-y2    tot
    1  0.016  0.000  0.000  0.000  0.000  0.000  0.000  0.000  0.000  0.017
    2  0.016  0.000  0.000  0.000  0.000  0.000  0.000  0.000  0.000  0.017
    3  0.016  0.000  0.000  0.000  0.000  0.000  0.000  0.000  0.000  0.017
    4  0.016  0.000  0.000  0.000  0.000  0.000  0.000  0.000  0.000  0.017
tot    0.065  0.000  0.000  0.001  0.000  0.000  0.000  0.000  0.000  0.067
 
band    10 # energy   12.30523640 # occ.  0.00000000
 
ion      s     py     pz     px    dxy    dyz    dz2    dxz  x2-y2    tot
    1  0.002  0.032  0.000  0.096  0.000  0.000  0.000  0.000  0.000  0.131
    2  0.002  0.032  0.000  0.096  0.000  0.000  0.000  0.000  0.000  0.131
    3  0.002  0.032  0.000  0.095  0.000  0.000  0.000  0.000  0.000  0.129
    4  0.002  0.032  0.000  0.095  0.000  0.000  0.000  0.000  0.000  0.129
tot    0.009  0.128  0.000  0.383  0.000  0.000  0.000  0.000  0.000  0.519
 
band    11 # energy   12.33013735 # occ.  0.00000000
 
ion      s     py     pz     px    dxy    dyz    dz2    dxz  x2-y2    tot
    1  0.003  0.032  0.000  0.095  0.000  0.000  0.000  0.000  0.000  0.130
    2  0.003  0.032  0.000  0.095  0.000  0.000  0.000  0.000  0.000  0.130
    3  0.003  0.032  0.000  0.096  0.000  0.000  0.000  0.000  0.000  0.131
    4  0.003  0.032  0.000  0.096  0.000  0.000  0.000  0.000  0.000  0.131
tot    0.011  0.128  0.000  0.383  0.000  0.000  0.000  0.000  0.000  0.522
 
band    12 # energy   12.58409984 # occ.  0.00000000
 
ion      s     py     pz     px    dxy    dyz    dz2    dxz  x2-y2    tot
    1  0.000  0.100  0.000  0.033  0.000  0.000  0.000  0.000  0.000  0.133
    2  0.000  0.100  0.000  0.033  0.000  0.000  0.000  0.000  0.000  0.133
    3  0.000  0.099  0.000  0.033  0.000  0.000  0.000  0.000  0.000  0.132
    4  0.000  0.099  0.000  0.033  0.000  0.000  0.000  0.000  0.000  0.132
tot    0.000  0.398  0.000  0.133  0.000  0.000  0.000  0.000  0.000  0.531
 
band    13 # energy   12.58520599 # occ.  0.00000000
 
ion      s     py     pz     px    dxy    dyz    dz2    dxz  x2-y2    tot
    1  0.000  0.000  0.062  0.000  0.000  0.000  0.000  0.000  0.000  0.062
    2  0.000  0.000  0.062  0.000  0.000  0.000  0.000  0.000  0.000  0.062
    3  0.000  0.000  0.061  0.000  0.000  0.000  0.000  0.000  0.000  0.061
    4  0.000  0.000  0.061  0.000  0.000  0.000  0.000  0.000  0.000  0.061
tot    0.000  0.000  0.245  0.000  0.000  0.000  0.000  0.000  0.000  0.245
 
band    14 # energy   12.60744088 # occ.  0.00000000
 
ion      s     py     pz     px    dxy    dyz    dz2    dxz  x2-y2    tot
    1  0.000  0.099  0.000  0.033  0.000  0.000  0.000  0.000  0.000  0.132
    2  0.000  0.099  0.000  0.033  0.000  0.000  0.000  0.000  0.000  0.132
    3  0.000  0.100  0.000  0.033  0.000  0.000  0.000  0.000  0.000  0.134
    4  0.000  0.100  0.000  0.033  0.000  0.000  0.000  0.000  0.000  0.134
tot    0.000  0.399  0.000  0.133  0.000  0.000  0.000  0.000  0.000  0.533
 
band    15 # energy   15.06550946 # occ.  0.00000000
 
ion      s     py     pz     px    dxy    dyz    dz2    dxz  x2-y2    tot
    1  0.000  0.000  0.190  0.000  0.000  0.000  0.000  0.000  0.000  0.190
    2  0.000  0.000  0.190  0.000  0.000  0.000  0.000  0.000  0.000  0.190
    3  0.000  0.000  0.191  0.000  0.000  0.000  0.000  0.000  0.000  0.191
    4  0.000  0.000  0.191  0.000  0.000  0.000  0.000  0.000  0.000  0.191
tot    0.000  0.000  0.764  0.000  0.000  0.000  0.000  0.000  0.000  0.764
 
band    16 # energy   15.16227347 # occ.  0.00000000
 
ion      s     py     pz     px    dxy    dyz    dz2    dxz  x2-y2    tot
    1  0.000  0.000  0.193  0.000  0.000  0.000  0.000  0.000  0.000  0.193
    2  0.000  0.000  0.193  0.000  0.000  0.000  0.000  0.000  0.000  0.193
    3  0.000  0.000  0.194  0.000  0.000  0.000  0.000  0.000  0.000  0.194
    4  0.000  0.000  0.194  0.000  0.000  0.000  0.000  0.000  0.000  0.194
tot    0.000  0.000  0.773  0.000  0.000  0.000  0.000  0.000  0.000  0.773
 

 k-point     3 :    0.11111111 0.00000000 0.00000000     weight = 0.00462963

band     1 # energy  -15.37904394 # occ.  1.00000000
 
ion      s     py     pz     px    dxy    dyz    dz2    dxz  x2-y2    tot
    1  0.158  0.001  0.000  0.002  0.000  0.000  0.000  0.000  0.000  0.161
    2  0.158  0.001  0.000  0.002  0.000  0.000  0.000  0.000  0.000  0.161
    3  0.158  0.001  0.000  0.002  0.000  0.000  0.000  0.000  0.000  0.161
    4  0.158  0.001  0.000  0.002  0.000  0.000  0.000  0.000  0.000  0.161
tot    0.631  0.003  0.000  0.009  0.000  0.000  0.000  0.000  0.000  0.643
 
band     2 # energy  -15.24158910 # occ.  1.00000000
 
ion      s     py     pz     px    dxy    dyz    dz2    dxz  x2-y2    tot
    1  0.161  0.001  0.000  0.002  0.000  0.000  0.000  0.000  0.000  0.164
    2  0.161  0.001  0.000  0.002  0.000  0.000  0.000  0.000  0.000  0.164
    3  0.161  0.001  0.000  0.002  0.000  0.000  0.000  0.000  0.000  0.164
    4  0.161  0.001  0.000  0.002  0.000  0.000  0.000  0.000  0.000  0.164
tot    0.643  0.003  0.000  0.009  0.000  0.000  0.000  0.000  0.000  0.655
 
band     3 # energy   -3.91541907 # occ.  1.00000000
 
ion      s     py     pz     px    dxy    dyz    dz2    dxz  x2-y2    tot
    1  0.000  0.000  0.099  0.000  0.000  0.000  0.000  0.000  0.000  0.099
    2  0.000  0.000  0.099  0.000  0.000  0.000  0.000  0.000  0.000  0.099
    3  0.000  0.000  0.099  0.000  0.000  0.000  0.000  0.000  0.000  0.099
    4  0.000  0.000  0.099  0.000  0.000  0.000  0.000  0.000  0.000  0.099
tot    0.000  0.000  0.397  0.000  0.000  0.000  0.000  0.000  0.000  0.397
 
band     4 # energy   -2.74035015 # occ.  1.00000000
 
ion      s     py     pz     px    dxy    dyz    dz2    dxz  x2-y2    tot
    1  0.000  0.000  0.120  0.000  0.000  0.000  0.000  0.000  0.000  0.120
    2  0.000  0.000  0.120  0.000  0.000  0.000  0.000  0.000  0.000  0.120
    3  0.000  0.000  0.121  0.000  0.000  0.000  0.000  0.000  0.000  0.121
    4  0.000  0.000  0.121  0.000  0.000  0.000  0.000  0.000  0.000  0.121
tot    0.000  0.000  0.482  0.000  0.000  0.000  0.000  0.000  0.000  0.482
 
band     5 # energy   -0.22457397 # occ.  1.00000000
 
ion      s     py     pz     px    dxy    dyz    dz2    dxz  x2-y2    tot
    1  0.015  0.047  0.000  0.140  0.000  0.000  0.000  0.000  0.000  0.201
    2  0.015  0.047  0.000  0.140  0.000  0.000  0.000  0.000  0.000  0.201
    3  0.015  0.046  0.000  0.139  0.000  0.000  0.000  0.000  0.000  0.201
    4  0.015  0.046  0.000  0.139  0.000  0.000  0.000  0.000  0.000  0.201
tot    0.061  0.186  0.000  0.558  0.000  0.000  0.000  0.000  0.000  0.805
 
band     6 # energy   -0.20736254 # occ.  1.00000000
 
ion      s     py     pz     px    dxy    dyz    dz2    dxz  x2-y2    tot
    1  0.015  0.047  0.000  0.140  0.000  0.000  0.000  0.000  0.000  0.202
    2  0.015  0.047  0.000  0.140  0.000  0.000  0.000  0.000  0.000  0.202
    3  0.015  0.047  0.000  0.140  0.000  0.000  0.000  0.000  0.000  0.202
    4  0.015  0.047  0.000  0.140  0.000  0.000  0.000  0.000  0.000  0.202
tot    0.061  0.186  0.000  0.560  0.000  0.000  0.000  0.000  0.000  0.807
 
band     7 # energy    0.32167321 # occ.  1.00000000
 
ion      s     py     pz     px    dxy    dyz    dz2    dxz  x2-y2    tot
    1  0.000  0.152  0.000  0.051  0.000  0.000  0.000  0.000  0.000  0.203
    2  0.000  0.152  0.000  0.051  0.000  0.000  0.000  0.000  0.000  0.203
    3  0.000  0.152  0.000  0.051  0.000  0.000  0.000  0.000  0.000  0.203
    4  0.000  0.152  0.000  0.051  0.000  0.000  0.000  0.000  0.000  0.203
tot    0.000  0.609  0.000  0.203  0.000  0.000  0.000  0.000  0.000  0.813
 
band     8 # energy    0.33509337 # occ.  1.00000000
 
ion      s     py     pz     px    dxy    dyz    dz2    dxz  x2-y2    tot
    1  0.000  0.153  0.000  0.051  0.000  0.000  0.000  0.000  0.000  0.204
    2  0.000  0.153  0.000  0.051  0.000  0.000  0.000  0.000  0.000  0.204
    3  0.000  0.153  0.000  0.051  0.000  0.000  0.000  0.000  0.000  0.204
    4  0.000  0.153  0.000  0.051  0.000  0.000  0.000  0.000  0.000  0.204
tot    0.000  0.611  0.000  0.203  0.000  0.000  0.000  0.000  0.000  0.814
 
band     9 # energy    7.94475703 # occ.  0.00000000
 
ion      s     py     pz     px    dxy    dyz    dz2    dxz  x2-y2    tot
    1  0.015  0.000  0.000  0.001  0.000  0.000  0.000  0.000  0.000  0.017
    2  0.015  0.000  0.000  0.001  0.000  0.000  0.000  0.000  0.000  0.017
    3  0.015  0.000  0.000  0.001  0.000  0.000  0.000  0.000  0.000  0.017
    4  0.015  0.000  0.000  0.001  0.000  0.000  0.000  0.000  0.000  0.017
tot    0.062  0.001  0.000  0.004  0.000  0.000  0.000  0.000  0.000  0.067
 
band    10 # energy   12.32112310 # occ.  0.00000000
 
ion      s     py     pz     px    dxy    dyz    dz2    dxz  x2-y2    tot
    1  0.012  0.029  0.000  0.086  0.000  0.000  0.000  0.000  0.000  0.127
    2  0.012  0.029  0.000  0.086  0.000  0.000  0.000  0.000  0.000  0.127
    3  0.012  0.028  0.000  0.084  0.000  0.000  0.000  0.000  0.000  0.125
    4  0.012  0.028  0.000  0.084  0.000  0.000  0.000  0.000  0.000  0.125
tot    0.048  0.114  0.000  0.341  0.000  0.000  0.000  0.000  0.000  0.503
 
band    11 # energy   12.38211365 # occ.  0.00000000
 
ion      s     py     pz     px    dxy    dyz    dz2    dxz  x2-y2    tot
    1  0.014  0.028  0.000  0.084  0.000  0.000  0.000  0.000  0.000  0.126
    2  0.014  0.028  0.000  0.084  0.000  0.000  0.000  0.000  0.000  0.126
    3  0.014  0.029  0.000  0.086  0.000  0.000  0.000  0.000  0.000  0.128
    4  0.014  0.029  0.000  0.086  0.000  0.000  0.000  0.000  0.000  0.128
tot    0.055  0.113  0.000  0.340  0.000  0.000  0.000  0.000  0.000  0.508
 
band    12 # energy   12.81606380 # occ.  0.00000000
 
ion      s     py     pz     px    dxy    dyz    dz2    dxz  x2-y2    tot
    1  0.000  0.000  0.063  0.000  0.000  0.000  0.000  0.000  0.000  0.063
    2  0.000  0.000  0.063  0.000  0.000  0.000  0.000  0.000  0.000  0.063
    3  0.000  0.000  0.060  0.000  0.000  0.000  0.000  0.000  0.000  0.060
    4  0.000  0.000  0.060  0.000  0.000  0.000  0.000  0.000  0.000  0.060
tot    0.000  0.000  0.246  0.000  0.000  0.000  0.000  0.000  0.000  0.246
 
band    13 # energy   13.47595524 # occ.  0.00000000
 
ion      s     py     pz     px    dxy    dyz    dz2    dxz  x2-y2    tot
    1  0.000  0.103  0.000  0.034  0.000  0.000  0.000  0.000  0.000  0.137
    2  0.000  0.103  0.000  0.034  0.000  0.000  0.000  0.000  0.000  0.137
    3  0.000  0.102  0.000  0.034  0.000  0.000  0.000  0.000  0.000  0.136
    4  0.000  0.102  0.000  0.034  0.000  0.000  0.000  0.000  0.000  0.136
tot    0.000  0.409  0.000  0.136  0.000  0.000  0.000  0.000  0.000  0.545
 
band    14 # energy   13.50014532 # occ.  0.00000000
 
ion      s     py     pz     px    dxy    dyz    dz2    dxz  x2-y2    tot
    1  0.000  0.102  0.000  0.034  0.000  0.000  0.000  0.000  0.000  0.136
    2  0.000  0.102  0.000  0.034  0.000  0.000  0.000  0.000  0.000  0.136
    3  0.000  0.103  0.000  0.034  0.000  0.000  0.000  0.000  0.000  0.137
    4  0.000  0.103  0.000  0.034  0.000  0.000  0.000  0.000  0.000  0.137
tot    0.000  0.410  0.000  0.137  0.000  0.000  0.000  0.000  0.000  0.547
 
band    15 # energy   14.32565283 # occ.  0.00000000
 
ion      s     py     pz     px    dxy    dyz    dz2    dxz  x2-y2    tot
    1  0.000  0.000  0.179  0.000  0.000  0.000  0.000  0.000  0.000  0.179
    2  0.000  0.000  0.179  0.000  0.000  0.000  0.000  0.000  0.000  0.179
    3  0.000  0.000  0.185  0.000  0.000  0.000  0.000  0.000  0.000  0.185
    4  0.000  0.000  0.185  0.000  0.000  0.000  0.000  0.000  0.000  0.185
tot    0.000  0.000  0.728  0.000  0.000  0.000  0.000  0.000  0.000  0.728
 
band    16 # energy   14.46084473 # occ.  0.00000000
 
ion      s     py     pz     px    dxy    dyz    dz2    dxz  x2-y2    tot
    1  0.000  0.000  0.186  0.000  0.000  0.000  0.000  0.000  0.000  0.186
    2  0.000  0.000  0.186  0.000  0.000  0.000  0.000  0.000  0.000  0.186
    3  0.000  0.000  0.185  0.000  0.000  0.000  0.000  0.000  0.000  0.185
    4  0.000  0.000  0.185  0.000  0.000  0.000  0.000  0.000  0.000  0.185
tot    0.000  0.000  0.743  0.000  0.000  0.000  0.000  0.000  0.000  0.743
 

 k-point     4 :    0.16666667 0.00000000 0.00000000     weight = 0.00462963

band     1 # energy  -15.01389843 # occ.  1.00000000
 
ion      s     py     pz     px    dxy    dyz    dz2    dxz  x2-y2    tot
    1  0.155  0.002  0.000  0.005  0.000  0.000  0.000  0.000  0.000  0.162
    2  0.155  0.002  0.000  0.005  0.000  0.000  0.000  0.000  0.000  0.162
    3  0.155  0.002  0.000  0.005  0.000  0.000  0.000  0.000  0.000  0.162
    4  0.155  0.002  0.000  0.005  0.000  0.000  0.000  0.000  0.000  0.162
tot    0.620  0.007  0.000  0.021  0.000  0.000  0.000  0.000  0.000  0.647
 
band     2 # energy  -14.87986908 # occ.  1.00000000
 
ion      s     py     pz     px    dxy    dyz    dz2    dxz  x2-y2    tot
    1  0.158  0.002  0.000  0.005  0.000  0.000  0.000  0.000  0.000  0.165
    2  0.158  0.002  0.000  0.005  0.000  0.000  0.000  0.000  0.000  0.165
    3  0.158  0.002  0.000  0.005  0.000  0.000  0.000  0.000  0.000  0.165
    4  0.158  0.002  0.000  0.005  0.000  0.000  0.000  0.000  0.000  0.165
tot    0.631  0.007  0.000  0.021  0.000  0.000  0.000  0.000  0.000  0.659
 
band     3 # energy   -3.47562540 # occ.  1.00000000
 
ion      s     py     pz     px    dxy    dyz    dz2    dxz  x2-y2    tot
    1  0.000  0.000  0.100  0.000  0.000  0.000  0.000  0.000  0.000  0.100
    2  0.000  0.000  0.100  0.000  0.000  0.000  0.000  0.000  0.000  0.100
    3  0.000  0.000  0.100  0.000  0.000  0.000  0.000  0.000  0.000  0.100
    4  0.000  0.000  0.100  0.000  0.000  0.000  0.000  0.000  0.000  0.100
tot    0.000  0.000  0.401  0.000  0.000  0.000  0.000  0.000  0.000  0.401
 
band     4 # energy   -2.32092334 # occ.  1.00000000
 
ion      s     py     pz     px    dxy    dyz    dz2    dxz  x2-y2    tot
    1  0.000  0.000  0.121  0.000  0.000  0.000  0.000  0.000  0.000  0.121
    2  0.000  0.000  0.121  0.000  0.000  0.000  0.000  0.000  0.000  0.121
    3  0.000  0.000  0.121  0.000  0.000  0.000  0.000  0.000  0.000  0.121
    4  0.000  0.000  0.121  0.000  0.000  0.000  0.000  0.000  0.000  0.121
tot    0.000  0.000  0.485  0.000  0.000  0.000  0.000  0.000  0.000  0.485
 
band     5 # energy   -1.40681214 # occ.  1.00000000
 
ion      s     py     pz     px    dxy    dyz    dz2    dxz  x2-y2    tot
    1  0.029  0.042  0.000  0.126  0.000  0.000  0.000  0.000  0.000  0.197
    2  0.029  0.042  0.000  0.126  0.000  0.000  0.000  0.000  0.000  0.197
    3  0.029  0.042  0.000  0.126  0.000  0.000  0.000  0.000  0.000  0.196
    4  0.029  0.042  0.000  0.126  0.000  0.000  0.000  0.000  0.000  0.196
tot    0.116  0.168  0.000  0.503  0.000  0.000  0.000  0.000  0.000  0.786
 
band     6 # energy   -1.38006861 # occ.  1.00000000
 
ion      s     py     pz     px    dxy    dyz    dz2    dxz  x2-y2    tot
    1  0.029  0.042  0.000  0.126  0.000  0.000  0.000  0.000  0.000  0.197
    2  0.029  0.042  0.000  0.126  0.000  0.000  0.000  0.000  0.000  0.197
    3  0.029  0.042  0.000  0.126  0.000  0.000  0.000  0.000  0.000  0.197
    4  0.029  0.042  0.000  0.126  0.000  0.000  0.000  0.000  0.000  0.197
tot    0.117  0.168  0.000  0.505  0.000  0.000  0.000  0.000  0.000  0.790
 
band     7 # energy   -0.23994153 # occ.  1.00000000
 
ion      s     py     pz     px    dxy    dyz    dz2    dxz  x2-y2    tot
    1  0.000  0.151  0.000  0.050  0.000  0.000  0.000  0.000  0.000  0.201
    2  0.000  0.151  0.000  0.050  0.000  0.000  0.000  0.000  0.000  0.201
    3  0.000  0.151  0.000  0.050  0.000  0.000  0.000  0.000  0.000  0.201
    4  0.000  0.151  0.000  0.050  0.000  0.000  0.000  0.000  0.000  0.201
tot    0.000  0.602  0.000  0.201  0.000  0.000  0.000  0.000  0.000  0.803
 
band     8 # energy   -0.22355455 # occ.  1.00000000
 
ion      s     py     pz     px    dxy    dyz    dz2    dxz  x2-y2    tot
    1  0.000  0.151  0.000  0.050  0.000  0.000  0.000  0.000  0.000  0.201
    2  0.000  0.151  0.000  0.050  0.000  0.000  0.000  0.000  0.000  0.201
    3  0.000  0.151  0.000  0.050  0.000  0.000  0.000  0.000  0.000  0.201
    4  0.000  0.151  0.000  0.050  0.000  0.000  0.000  0.000  0.000  0.201
tot    0.000  0.604  0.000  0.201  0.000  0.000  0.000  0.000  0.000  0.805
 
band     9 # energy    8.40601005 # occ.  0.00000000
 
ion      s     py     pz     px    dxy    dyz    dz2    dxz  x2-y2    tot
    1  0.014  0.001  0.000  0.002  0.000  0.000  0.000  0.000  0.000  0.017
    2  0.014  0.001  0.000  0.002  0.000  0.000  0.000  0.000  0.000  0.017
    3  0.014  0.001  0.000  0.002  0.000  0.000  0.000  0.000  0.000  0.017
    4  0.014  0.001  0.000  0.002  0.000  0.000  0.000  0.000  0.000  0.017
tot    0.056  0.003  0.000  0.009  0.000  0.000  0.000  0.000  0.000  0.068
 
band    10 # energy   12.23159114 # occ.  0.00000000
 
ion      s     py     pz     px    dxy    dyz    dz2    dxz  x2-y2    tot
    1  0.031  0.023  0.000  0.069  0.000  0.000  0.000  0.000  0.000  0.123
    2  0.031  0.023  0.000  0.069  0.000  0.000  0.000  0.000  0.000  0.123
    3  0.029  0.023  0.000  0.068  0.000  0.000  0.000  0.000  0.000  0.120
    4  0.029  0.023  0.000  0.068  0.000  0.000  0.000  0.000  0.000  0.120