<?xml version="1.0" encoding="ISO-8859-1"?>
<modeling>
 <generator>
  <i name="program" type="string">vasp </i>
  <i name="version" type="string">5.4.4.18Apr17-6-g9f103f2a35  </i>
  <i name="subversion" type="string">(build Jul  5 2023 12:24:19) complex            parallel </i>
  <i name="platform" type="string">NVIDIA22.7_CrayMPICH8.1.17 </i>
  <i name="date" type="string">2023 10 16 </i>
  <i name="time" type="string">23:30:25 </i>
 </generator>
 <incar>
  <i type="string" name="PREC">accurate</i>
  <i type="int" name="ISPIN">     2</i>
  <i type="int" name="ICHARG">     0</i>
  <i type="int" name="IBRION">     2</i>
  <i name="EDIFF">      0.00000100</i>
  <i name="EDIFFG">      0.00010000</i>
  <i type="int" name="NSW">   100</i>
  <i type="int" name="ISIF">     3</i>
  <i type="int" name="ISYM">     2</i>
  <i name="SYMPREC">      0.00010000</i>
  <i name="POTIM">      0.01500000</i>
  <i type="int" name="ISMEAR">    -5</i>
  <i name="SIGMA">      0.01000000</i>
  <i type="int" name="NWRITE">     0</i>
  <i name="PSTRESS">      0.00000000</i>
  <i type="logical" name="LWAVE"> F  </i>
  <i type="logical" name="LCHARG"> F  </i>
  <i type="int" name="LORBIT">    11</i>
  <v type="int" name="KPOINT_BSE">    -1     0     0     0</v>
 </incar>
 <structure name="primitive_cell" >
  <crystal>
   <varray name="basis" >
    <v>       2.46729100       0.00000000       0.00000000 </v>
    <v>      -1.23364600       2.13673700       0.00000000 </v>
    <v>       0.00000000       0.00000000       7.80307300 </v>
   </varray>
   <i name="volume">     41.13742607 </i>
   <varray name="rec_basis" >
    <v>       0.40530282       0.23400175      -0.00000000 </v>
    <v>       0.00000000       0.46800332       0.00000000 </v>
    <v>       0.00000000      -0.00000000       0.12815464 </v>
   </varray>
  </crystal>
  <varray name="positions" >
   <v>       0.00000000       0.00000000       0.25000000 </v>
   <v>       0.33333300      -0.33333300       0.25000000 </v>
   <v>       0.00000000       0.00000000      -0.25000000 </v>
   <v>      -0.33333300       0.33333300      -0.25000000 </v>
  </varray>
 </structure>
 <varray name="primitive_index" >
  <v type="int" >        1 </v>
  <v type="int" >        3 </v>
  <v type="int" >        2 </v>
  <v type="int" >        4 </v>
 </varray>
 <kpoints>
  <generation param="Gamma">
   <v type="int" name="divisions">      18       18        4 </v>
   <v name="usershift">      0.00000000       0.00000000       0.00000000 </v>
   <v name="genvec1">      0.05555556      -0.00000000       0.00000000 </v>
   <v name="genvec2">      0.00000000       0.05555556       0.00000000 </v>
   <v name="genvec3">      0.00000000       0.00000000       0.25000000 </v>
   <v name="shift">      0.00000000       0.00000000       0.00000000 </v>
  </generation>
  <varray name="kpointlist" >
   <v>       0.00000000       0.00000000       0.00000000 </v>
   <v>       0.05555556       0.00000000       0.00000000 </v>
   <v>       0.11111111       0.00000000       0.00000000 </v>
   <v>       0.16666667       0.00000000       0.00000000 </v>
   <v>       0.22222222       0.00000000       0.00000000 </v>
   <v>       0.27777778       0.00000000       0.00000000 </v>
   <v>       0.33333333       0.00000000       0.00000000 </v>
   <v>       0.38888889       0.00000000       0.00000000 </v>
   <v>       0.44444444       0.00000000       0.00000000 </v>
   <v>       0.50000000       0.00000000       0.00000000 </v>
   <v>       0.05555556       0.05555556       0.00000000 </v>
   <v>       0.11111111       0.05555556       0.00000000 </v>
   <v>       0.16666667       0.05555556       0.00000000 </v>
   <v>       0.22222222       0.05555556       0.00000000 </v>
   <v>       0.27777778       0.05555556       0.00000000 </v>
   <v>       0.33333333       0.05555556       0.00000000 </v>
   <v>       0.38888889       0.05555556       0.00000000 </v>
   <v>       0.44444444       0.05555556       0.00000000 </v>
   <v>       0.11111111       0.11111111       0.00000000 </v>
   <v>       0.16666667       0.11111111       0.00000000 </v>
   <v>       0.22222222       0.11111111       0.00000000 </v>
   <v>       0.27777778       0.11111111       0.00000000 </v>
   <v>       0.33333333       0.11111111       0.00000000 </v>
   <v>       0.38888889       0.11111111       0.00000000 </v>
   <v>       0.44444444       0.11111111       0.00000000 </v>
   <v>       0.16666667       0.16666667       0.00000000 </v>
   <v>       0.22222222       0.16666667       0.00000000 </v>
   <v>       0.27777778       0.16666667       0.00000000 </v>
   <v>       0.33333333       0.16666667       0.00000000 </v>
   <v>       0.38888889       0.16666667       0.00000000 </v>
   <v>       0.22222222       0.22222222       0.00000000 </v>
   <v>       0.27777778       0.22222222       0.00000000 </v>
   <v>       0.33333333       0.22222222       0.00000000 </v>
   <v>       0.38888889       0.22222222       0.00000000 </v>
   <v>       0.27777778       0.27777778       0.00000000 </v>
   <v>       0.33333333       0.27777778       0.00000000 </v>
   <v>       0.33333333       0.33333333       0.00000000 </v>
   <v>       0.00000000       0.00000000       0.25000000 </v>
   <v>       0.05555556       0.00000000       0.25000000 </v>
   <v>       0.11111111       0.00000000       0.25000000 </v>
   <v>       0.16666667       0.00000000       0.25000000 </v>
   <v>       0.22222222       0.00000000       0.25000000 </v>
   <v>       0.27777778       0.00000000       0.25000000 </v>
   <v>       0.33333333       0.00000000       0.25000000 </v>
   <v>       0.38888889       0.00000000       0.25000000 </v>
   <v>       0.44444444       0.00000000       0.25000000 </v>
   <v>       0.50000000       0.00000000       0.25000000 </v>
   <v>       0.05555556       0.05555556       0.25000000 </v>
   <v>       0.11111111       0.05555556       0.25000000 </v>
   <v>       0.16666667       0.05555556       0.25000000 </v>
   <v>       0.22222222       0.05555556       0.25000000 </v>
   <v>       0.27777778       0.05555556       0.25000000 </v>
   <v>       0.33333333       0.05555556       0.25000000 </v>
   <v>       0.38888889       0.05555556       0.25000000 </v>
   <v>       0.44444444       0.05555556       0.25000000 </v>
   <v>       0.11111111       0.11111111       0.25000000 </v>
   <v>       0.16666667       0.11111111       0.25000000 </v>
   <v>       0.22222222       0.11111111       0.25000000 </v>
   <v>       0.27777778       0.11111111       0.25000000 </v>
   <v>       0.33333333       0.11111111       0.25000000 </v>
   <v>       0.38888889       0.11111111       0.25000000 </v>
   <v>       0.44444444       0.11111111       0.25000000 </v>
   <v>       0.16666667       0.16666667       0.25000000 </v>
   <v>       0.22222222       0.16666667       0.25000000 </v>
   <v>       0.27777778       0.16666667       0.25000000 </v>
   <v>       0.33333333       0.16666667       0.25000000 </v>
   <v>       0.38888889       0.16666667       0.25000000 </v>
   <v>       0.22222222       0.22222222       0.25000000 </v>
   <v>       0.27777778       0.22222222       0.25000000 </v>
   <v>       0.33333333       0.22222222       0.25000000 </v>
   <v>       0.38888889       0.22222222       0.25000000 </v>
   <v>       0.27777778       0.27777778       0.25000000 </v>
   <v>       0.33333333       0.27777778       0.25000000 </v>
   <v>       0.33333333       0.33333333       0.25000000 </v>
   <v>       0.00000000       0.00000000       0.50000000 </v>
   <v>       0.05555556       0.00000000       0.50000000 </v>
   <v>       0.11111111       0.00000000       0.50000000 </v>
   <v>       0.16666667       0.00000000       0.50000000 </v>
   <v>       0.22222222       0.00000000       0.50000000 </v>
   <v>       0.27777778       0.00000000       0.50000000 </v>
   <v>       0.33333333       0.00000000       0.50000000 </v>
   <v>       0.38888889       0.00000000       0.50000000 </v>
   <v>       0.44444444       0.00000000       0.50000000 </v>
   <v>       0.50000000       0.00000000       0.50000000 </v>
   <v>       0.05555556       0.05555556       0.50000000 </v>
   <v>       0.11111111       0.05555556       0.50000000 </v>
   <v>       0.16666667       0.05555556       0.50000000 </v>
   <v>       0.22222222       0.05555556       0.50000000 </v>
   <v>       0.27777778       0.05555556       0.50000000 </v>
   <v>       0.33333333       0.05555556       0.50000000 </v>
   <v>       0.38888889       0.05555556       0.50000000 </v>
   <v>       0.44444444       0.05555556       0.50000000 </v>
   <v>       0.11111111       0.11111111       0.50000000 </v>
   <v>       0.16666667       0.11111111       0.50000000 </v>
   <v>       0.22222222       0.11111111       0.50000000 </v>
   <v>       0.27777778       0.11111111       0.50000000 </v>
   <v>       0.33333333       0.11111111       0.50000000 </v>
   <v>       0.38888889       0.11111111       0.50000000 </v>
   <v>       0.44444444       0.11111111       0.50000000 </v>
   <v>       0.16666667       0.16666667       0.50000000 </v>
   <v>       0.22222222       0.16666667       0.50000000 </v>
   <v>       0.27777778       0.16666667       0.50000000 </v>
   <v>       0.33333333       0.16666667       0.50000000 </v>
   <v>       0.38888889       0.16666667       0.50000000 </v>
   <v>       0.22222222       0.22222222       0.50000000 </v>
   <v>       0.27777778       0.22222222       0.50000000 </v>
   <v>       0.33333333       0.22222222       0.50000000 </v>
   <v>       0.38888889       0.22222222       0.50000000 </v>
   <v>       0.27777778       0.27777778       0.50000000 </v>
   <v>       0.33333333       0.27777778       0.50000000 </v>
   <v>       0.33333333       0.33333333       0.50000000 </v>
  </varray>
  <varray name="weights" >
   <v>       0.00077160 </v>
   <v>       0.00462963 </v>
   <v>       0.00462963 </v>
   <v>       0.00462963 </v>
   <v>       0.00462963 </v>
   <v>       0.00462963 </v>
   <v>       0.00462963 </v>
   <v>       0.00462963 </v>
   <v>       0.00462963 </v>
   <v>       0.00231481 </v>
   <v>       0.00462963 </v>
   <v>       0.00925926 </v>
   <v>       0.00925926 </v>
   <v>       0.00925926 </v>
   <v>       0.00925926 </v>
   <v>       0.00925926 </v>
   <v>       0.00925926 </v>
   <v>       0.00925926 </v>
   <v>       0.00462963 </v>
   <v>       0.00925926 </v>
   <v>       0.00925926 </v>
   <v>       0.00925926 </v>
   <v>       0.00925926 </v>
   <v>       0.00925926 </v>
   <v>       0.00462963 </v>
   <v>       0.00462963 </v>
   <v>       0.00925926 </v>
   <v>       0.00925926 </v>
   <v>       0.00925926 </v>
   <v>       0.00925926 </v>
   <v>       0.00462963 </v>
   <v>       0.00925926 </v>
   <v>       0.00925926 </v>
   <v>       0.00462963 </v>
   <v>       0.00462963 </v>
   <v>       0.00925926 </v>
   <v>       0.00154321 </v>
   <v>       0.00154321 </v>
   <v>       0.00925926 </v>
   <v>       0.00925926 </v>
   <v>       0.00925926 </v>
   <v>       0.00925926 </v>
   <v>       0.00925926 </v>
   <v>       0.00925926 </v>
   <v>       0.00925926 </v>
   <v>       0.00925926 </v>
   <v>       0.00462963 </v>
   <v>       0.00925926 </v>
   <v>       0.01851852 </v>
   <v>       0.01851852 </v>
   <v>       0.01851852 </v>
   <v>       0.01851852 </v>
   <v>       0.01851852 </v>
   <v>       0.01851852 </v>
   <v>       0.01851852 </v>
   <v>       0.00925926 </v>
   <v>       0.01851852 </v>
   <v>       0.01851852 </v>
   <v>       0.01851852 </v>
   <v>       0.01851852 </v>
   <v>       0.01851852 </v>
   <v>       0.00925926 </v>
   <v>       0.00925926 </v>
   <v>       0.01851852 </v>
   <v>       0.01851852 </v>
   <v>       0.01851852 </v>
   <v>       0.01851852 </v>
   <v>       0.00925926 </v>
   <v>       0.01851852 </v>
   <v>       0.01851852 </v>
   <v>       0.00925926 </v>
   <v>       0.00925926 </v>
   <v>       0.01851852 </v>
   <v>       0.00308642 </v>
   <v>       0.00077160 </v>
   <v>       0.00462963 </v>
   <v>       0.00462963 </v>
   <v>       0.00462963 </v>
   <v>       0.00462963 </v>
   <v>       0.00462963 </v>
   <v>       0.00462963 </v>
   <v>       0.00462963 </v>
   <v>       0.00462963 </v>
   <v>       0.00231481 </v>
   <v>       0.00462963 </v>
   <v>       0.00925926 </v>
   <v>       0.00925926 </v>
   <v>       0.00925926 </v>
   <v>       0.00925926 </v>
   <v>       0.00925926 </v>
   <v>       0.00925926 </v>
   <v>       0.00925926 </v>
   <v>       0.00462963 </v>
   <v>       0.00925926 </v>
   <v>       0.00925926 </v>
   <v>       0.00925926 </v>
   <v>       0.00925926 </v>
   <v>       0.00925926 </v>
   <v>       0.00462963 </v>
   <v>       0.00462963 </v>
   <v>       0.00925926 </v>
   <v>       0.00925926 </v>
   <v>       0.00925926 </v>
   <v>       0.00925926 </v>
   <v>       0.00462963 </v>
   <v>       0.00925926 </v>
   <v>       0.00925926 </v>
   <v>       0.00462963 </v>
   <v>       0.00462963 </v>
   <v>       0.00925926 </v>
   <v>       0.00154321 </v>
  </varray>
  <varray name="tetrahedronlist"  type="int" >
   <v type="int" >        8        2        2       11       39 </v>
   <v type="int" >        8        1        2        2       39 </v>
   <v type="int" >        4        1        2       38       39 </v>
   <v type="int" >        4        2       11       39       48 </v>
   <v type="int" >        8        2       39       39       48 </v>
   <v type="int" >        8        2       38       39       39 </v>
   <v type="int" >        8        3       11       12       48 </v>
   <v type="int" >        8        2        3       11       48 </v>
   <v type="int" >        4        2        3       39       48 </v>
   <v type="int" >        4        3       12       48       49 </v>
   <v type="int" >        8        3       40       48       49 </v>
   <v type="int" >        8        3       39       40       48 </v>
   <v type="int" >        8        4       12       13       49 </v>
   <v type="int" >        8        3        4       12       49 </v>
   <v type="int" >        4        3        4       40       49 </v>
   <v type="int" >        4        4       13       49       50 </v>
   <v type="int" >        8        4       41       49       50 </v>
   <v type="int" >        8        4       40       41       49 </v>
   <v type="int" >        8        5       13       14       50 </v>
   <v type="int" >        8        4        5       13       50 </v>
   <v type="int" >        4        4        5       41       50 </v>
   <v type="int" >        4        5       14       50       51 </v>
   <v type="int" >        8        5       42       50       51 </v>
   <v type="int" >        8        5       41       42       50 </v>
   <v type="int" >        8        6       14       15       51 </v>
   <v type="int" >        8        5        6       14       51 </v>
   <v type="int" >        4        5        6       42       51 </v>
   <v type="int" >        4        6       15       51       52 </v>
   <v type="int" >        8        6       43       51       52 </v>
   <v type="int" >        8        6       42       43       51 </v>
   <v type="int" >        8        7       15       16       52 </v>
   <v type="int" >        8        6        7       15       52 </v>
   <v type="int" >        4        6        7       43       52 </v>
   <v type="int" >        4        7       16       52       53 </v>
   <v type="int" >        8        7       44       52       53 </v>
   <v type="int" >        8        7       43       44       52 </v>
   <v type="int" >        8        8       16       17       53 </v>
   <v type="int" >        8        7        8       16       53 </v>
   <v type="int" >        4        7        8       44       53 </v>
   <v type="int" >        4        8       17       53       54 </v>
   <v type="int" >        8        8       45       53       54 </v>
   <v type="int" >        8        8       44       45       53 </v>
   <v type="int" >        8        9       17       18       54 </v>
   <v type="int" >        8        8        9       17       54 </v>
   <v type="int" >        4        8        9       45       54 </v>
   <v type="int" >        4        9       18       54       55 </v>
   <v type="int" >        8        9       46       54       55 </v>
   <v type="int" >        8        9       45       46       54 </v>
   <v type="int" >        8       10       18       18       55 </v>
   <v type="int" >        8        9       10       18       55 </v>
   <v type="int" >        4        9       10       46       55 </v>
   <v type="int" >        4       10       18       55       55 </v>
   <v type="int" >        4       10       47       55       55 </v>
   <v type="int" >        8       10       46       47       55 </v>
   <v type="int" >        8        9       17       18       55 </v>
   <v type="int" >        4        9       10       47       55 </v>
   <v type="int" >        4        9       17       54       55 </v>
   <v type="int" >        8        9       46       47       55 </v>
   <v type="int" >        8        8       16       17       54 </v>
   <v type="int" >        4        8        9       46       54 </v>
   <v type="int" >        4        8       16       53       54 </v>
   <v type="int" >        8        8       45       46       54 </v>
   <v type="int" >        8        7       15       16       53 </v>
   <v type="int" >        4        7        8       45       53 </v>
   <v type="int" >        4        7       15       52       53 </v>
   <v type="int" >        8        7       44       45       53 </v>
   <v type="int" >        8        6       14       15       52 </v>
   <v type="int" >        4        6        7       44       52 </v>
   <v type="int" >        4        6       14       51       52 </v>
   <v type="int" >        8        6       43       44       52 </v>
   <v type="int" >        8        5       13       14       51 </v>
   <v type="int" >        4        5        6       43       51 </v>
   <v type="int" >        4        5       13       50       51 </v>
   <v type="int" >        8        5       42       43       51 </v>
   <v type="int" >        8        4       12       13       50 </v>
   <v type="int" >        4        4        5       42       50 </v>
   <v type="int" >        4        4       12       49       50 </v>
   <v type="int" >        8        4       41       42       50 </v>
   <v type="int" >        8        3       11       12       49 </v>
   <v type="int" >        4        3        4       41       49 </v>
   <v type="int" >        4        3       11       48       49 </v>
   <v type="int" >        8        3       40       41       49 </v>
   <v type="int" >        4        2        2       11       48 </v>
   <v type="int" >        4        2        3       40       48 </v>
   <v type="int" >        4        2        2       39       48 </v>
   <v type="int" >        8        2       39       40       48 </v>
   <v type="int" >        4        1        2       39       39 </v>
   <v type="int" >        4        1       38       39       39 </v>
   <v type="int" >        8        3       11       12       40 </v>
   <v type="int" >        8        2        3       11       40 </v>
   <v type="int" >        4        2       11       39       40 </v>
   <v type="int" >        4       11       12       40       49 </v>
   <v type="int" >        8       11       40       48       49 </v>
   <v type="int" >        8       11       39       40       48 </v>
   <v type="int" >        8       12       12       19       49 </v>
   <v type="int" >        8       11       12       12       49 </v>
   <v type="int" >        4       11       12       48       49 </v>
   <v type="int" >        4       12       19       49       56 </v>
   <v type="int" >        8       12       49       49       56 </v>
   <v type="int" >        8       12       48       49       49 </v>
   <v type="int" >        8       13       19       20       56 </v>
   <v type="int" >        8       12       13       19       56 </v>
   <v type="int" >        4       12       13       49       56 </v>
   <v type="int" >        4       13       20       56       57 </v>
   <v type="int" >        8       13       50       56       57 </v>
   <v type="int" >        8       13       49       50       56 </v>
   <v type="int" >        8       14       20       21       57 </v>
   <v type="int" >        8       13       14       20       57 </v>
   <v type="int" >        4       13       14       50       57 </v>
   <v type="int" >        4       14       21       57       58 </v>
   <v type="int" >        8       14       51       57       58 </v>
   <v type="int" >        8       14       50       51       57 </v>
   <v type="int" >        8       15       21       22       58 </v>
   <v type="int" >        8       14       15       21       58 </v>
   <v type="int" >        4       14       15       51       58 </v>
   <v type="int" >        4       15       22       58       59 </v>
   <v type="int" >        8       15       52       58       59 </v>
   <v type="int" >        8       15       51       52       58 </v>
   <v type="int" >        8       16       22       23       59 </v>
   <v type="int" >        8       15       16       22       59 </v>
   <v type="int" >        4       15       16       52       59 </v>
   <v type="int" >        4       16       23       59       60 </v>
   <v type="int" >        8       16       53       59       60 </v>
   <v type="int" >        8       16       52       53       59 </v>
   <v type="int" >        8       17       23       24       60 </v>
   <v type="int" >        8       16       17       23       60 </v>
   <v type="int" >        4       16       17       53       60 </v>
   <v type="int" >        4       17       24       60       61 </v>
   <v type="int" >        8       17       54       60       61 </v>
   <v type="int" >        8       17       53       54       60 </v>
   <v type="int" >        8       18       24       25       61 </v>
   <v type="int" >        8       17       18       24       61 </v>
   <v type="int" >        4       17       18       54       61 </v>
   <v type="int" >        4       18       25       61       62 </v>
   <v type="int" >        8       18       55       61       62 </v>
   <v type="int" >        8       18       54       55       61 </v>
   <v type="int" >        8       18       24       25       62 </v>
   <v type="int" >        4       18       18       25       62 </v>
   <v type="int" >        4       18       18       55       62 </v>
   <v type="int" >        4       18       24       61       62 </v>
   <v type="int" >        8       18       55       55       62 </v>
   <v type="int" >        8       17       23       24       61 </v>
   <v type="int" >        4       17       18       55       61 </v>
   <v type="int" >        4       17       23       60       61 </v>
   <v type="int" >        8       17       54       55       61 </v>
   <v type="int" >        8       16       22       23       60 </v>
   <v type="int" >        4       16       17       54       60 </v>
   <v type="int" >        4       16       22       59       60 </v>
   <v type="int" >        8       16       53       54       60 </v>
   <v type="int" >        8       15       21       22       59 </v>
   <v type="int" >        4       15       16       53       59 </v>
   <v type="int" >        4       15       21       58       59 </v>
   <v type="int" >        8       15       52       53       59 </v>
   <v type="int" >        8       14       20       21       58 </v>
   <v type="int" >        4       14       15       52       58 </v>
   <v type="int" >        4       14       20       57       58 </v>
   <v type="int" >        8       14       51       52       58 </v>
   <v type="int" >        8       13       19       20       57 </v>
   <v type="int" >        4       13       14       51       57 </v>
   <v type="int" >        4       13       19       56       57 </v>
   <v type="int" >        8       13       50       51       57 </v>
   <v type="int" >        4       12       12       19       56 </v>
   <v type="int" >        4       12       13       50       56 </v>
   <v type="int" >        4       12       12       49       56 </v>
   <v type="int" >        8       12       49       50       56 </v>
   <v type="int" >        4       11       12       49       49 </v>
   <v type="int" >        4        3       11       40       49 </v>
   <v type="int" >        4       11       48       49       49 </v>
   <v type="int" >        4        2       11       40       48 </v>
   <v type="int" >        8        4       12       13       41 </v>
   <v type="int" >        8        3        4       12       41 </v>
   <v type="int" >        4        3       12       40       41 </v>
   <v type="int" >        4       12       13       41       50 </v>
   <v type="int" >        8       12       41       49       50 </v>
   <v type="int" >        8       12       40       41       49 </v>
   <v type="int" >        8       13       19       20       50 </v>
   <v type="int" >        8       12       13       19       50 </v>
   <v type="int" >        4       12       19       49       50 </v>
   <v type="int" >        4       19       20       50       57 </v>
   <v type="int" >        8       19       50       56       57 </v>
   <v type="int" >        8       19       49       50       56 </v>
   <v type="int" >        8       20       20       26       57 </v>
   <v type="int" >        8       19       20       20       57 </v>
   <v type="int" >        4       19       20       56       57 </v>
   <v type="int" >        4       20       26       57       63 </v>
   <v type="int" >        8       20       57       57       63 </v>
   <v type="int" >        8       20       56       57       57 </v>
   <v type="int" >        8       21       26       27       63 </v>
   <v type="int" >        8       20       21       26       63 </v>
   <v type="int" >        4       20       21       57       63 </v>
   <v type="int" >        4       21       27       63       64 </v>
   <v type="int" >        8       21       58       63       64 </v>
   <v type="int" >        8       21       57       58       63 </v>
   <v type="int" >        8       22       27       28       64 </v>
   <v type="int" >        8       21       22       27       64 </v>
   <v type="int" >        4       21       22       58       64 </v>
   <v type="int" >        4       22       28       64       65 </v>
   <v type="int" >        8       22       59       64       65 </v>
   <v type="int" >        8       22       58       59       64 </v>
   <v type="int" >        8       23       28       29       65 </v>
   <v type="int" >        8       22       23       28       65 </v>
   <v type="int" >        4       22       23       59       65 </v>
   <v type="int" >        4       23       29       65       66 </v>
   <v type="int" >        8       23       60       65       66 </v>
   <v type="int" >        8       23       59       60       65 </v>
   <v type="int" >        8       24       29       30       66 </v>
   <v type="int" >        8       23       24       29       66 </v>
   <v type="int" >        4       23       24       60       66 </v>
   <v type="int" >        4       24       30       66       67 </v>
   <v type="int" >        8       24       61       66       67 </v>
   <v type="int" >        8       24       60       61       66 </v>
   <v type="int" >        8       25       30       30       67 </v>
   <v type="int" >        8       24       25       30       67 </v>
   <v type="int" >        4       24       25       61       67 </v>
   <v type="int" >        4       25       30       67       67 </v>
   <v type="int" >        4       25       62       67       67 </v>
   <v type="int" >        8       25       61       62       67 </v>
   <v type="int" >        8       24       29       30       67 </v>
   <v type="int" >        4       24       25       62       67 </v>
   <v type="int" >        4       24       29       66       67 </v>
   <v type="int" >        8       24       61       62       67 </v>
   <v type="int" >        8       23       28       29       66 </v>
   <v type="int" >        4       23       24       61       66 </v>
   <v type="int" >        4       23       28       65       66 </v>
   <v type="int" >        8       23       60       61       66 </v>
   <v type="int" >        8       22       27       28       65 </v>
   <v type="int" >        4       22       23       60       65 </v>
   <v type="int" >        4       22       27       64       65 </v>
   <v type="int" >        8       22       59       60       65 </v>
   <v type="int" >        8       21       26       27       64 </v>
   <v type="int" >        4       21       22       59       64 </v>
   <v type="int" >        4       21       26       63       64 </v>
   <v type="int" >        8       21       58       59       64 </v>
   <v type="int" >        4       20       20       26       63 </v>
   <v type="int" >        4       20       21       58       63 </v>
   <v type="int" >        4       20       20       57       63 </v>
   <v type="int" >        8       20       57       58       63 </v>
   <v type="int" >        4       19       20       57       57 </v>
   <v type="int" >        4       13       19       50       57 </v>
   <v type="int" >        4       19       56       57       57 </v>
   <v type="int" >        4       12       19       50       56 </v>
   <v type="int" >        4        4       12       41       50 </v>
   <v type="int" >        4        3       12       41       49 </v>
   <v type="int" >        8        5       13       14       42 </v>
   <v type="int" >        8        4        5       13       42 </v>
   <v type="int" >        4        4       13       41       42 </v>
   <v type="int" >        4       13       14       42       51 </v>
   <v type="int" >        8       13       42       50       51 </v>
   <v type="int" >        8       13       41       42       50 </v>
   <v type="int" >        8       14       20       21       51 </v>
   <v type="int" >        8       13       14       20       51 </v>
   <v type="int" >        4       13       20       50       51 </v>
   <v type="int" >        4       20       21       51       58 </v>
   <v type="int" >        8       20       51       57       58 </v>
   <v type="int" >        8       20       50       51       57 </v>
   <v type="int" >        8       21       26       27       58 </v>
   <v type="int" >        8       20       21       26       58 </v>
   <v type="int" >        4       20       26       57       58 </v>
   <v type="int" >        4       26       27       58       64 </v>
   <v type="int" >        8       26       58       63       64 </v>
   <v type="int" >        8       26       57       58       63 </v>
   <v type="int" >        8       27       27       31       64 </v>
   <v type="int" >        8       26       27       27       64 </v>
   <v type="int" >        4       26       27       63       64 </v>
   <v type="int" >        4       27       31       64       68 </v>
   <v type="int" >        8       27       64       64       68 </v>
   <v type="int" >        8       27       63       64       64 </v>
   <v type="int" >        8       28       31       32       68 </v>
   <v type="int" >        8       27       28       31       68 </v>
   <v type="int" >        4       27       28       64       68 </v>
   <v type="int" >        4       28       32       68       69 </v>
   <v type="int" >        8       28       65       68       69 </v>
   <v type="int" >        8       28       64       65       68 </v>
   <v type="int" >        8       29       32       33       69 </v>
   <v type="int" >        8       28       29       32       69 </v>
   <v type="int" >        4       28       29       65       69 </v>
   <v type="int" >        4       29       33       69       70 </v>
   <v type="int" >        8       29       66       69       70 </v>
   <v type="int" >        8       29       65       66       69 </v>
   <v type="int" >        8       30       33       34       70 </v>
   <v type="int" >        8       29       30       33       70 </v>
   <v type="int" >        4       29       30       66       70 </v>
   <v type="int" >        4       30       34       70       71 </v>
   <v type="int" >        8       30       67       70       71 </v>
   <v type="int" >        8       30       66       67       70 </v>
   <v type="int" >        8       30       33       34       71 </v>
   <v type="int" >        4       30       30       34       71 </v>
   <v type="int" >        4       30       30       67       71 </v>
   <v type="int" >        4       30       33       70       71 </v>
   <v type="int" >        8       30       67       67       71 </v>
   <v type="int" >        8       29       32       33       70 </v>
   <v type="int" >        4       29       30       67       70 </v>
   <v type="int" >        4       29       32       69       70 </v>
   <v type="int" >        8       29       66       67       70 </v>
   <v type="int" >        8       28       31       32       69 </v>
   <v type="int" >        4       28       29       66       69 </v>
   <v type="int" >        4       28       31       68       69 </v>
   <v type="int" >        8       28       65       66       69 </v>
   <v type="int" >        4       27       27       31       68 </v>
   <v type="int" >        4       27       28       65       68 </v>
   <v type="int" >        4       27       27       64       68 </v>
   <v type="int" >        8       27       64       65       68 </v>
   <v type="int" >        4       26       27       64       64 </v>
   <v type="int" >        4       21       26       58       64 </v>
   <v type="int" >        4       26       63       64       64 </v>
   <v type="int" >        4       20       26       58       63 </v>
   <v type="int" >        4       14       20       51       58 </v>
   <v type="int" >        4       13       20       51       57 </v>
   <v type="int" >        4        5       13       42       51 </v>
   <v type="int" >        4        4       13       42       50 </v>
   <v type="int" >        8        6       14       15       43 </v>
   <v type="int" >        8        5        6       14       43 </v>
   <v type="int" >        4        5       14       42       43 </v>
   <v type="int" >        4       14       15       43       52 </v>
   <v type="int" >        8       14       43       51       52 </v>
   <v type="int" >        8       14       42       43       51 </v>
   <v type="int" >        8       15       21       22       52 </v>
   <v type="int" >        8       14       15       21       52 </v>
   <v type="int" >        4       14       21       51       52 </v>
   <v type="int" >        4       21       22       52       59 </v>
   <v type="int" >        8       21       52       58       59 </v>
   <v type="int" >        8       21       51       52       58 </v>
   <v type="int" >        8       22       27       28       59 </v>
   <v type="int" >        8       21       22       27       59 </v>
   <v type="int" >        4       21       27       58       59 </v>
   <v type="int" >        4       27       28       59       65 </v>
   <v type="int" >        8       27       59       64       65 </v>
   <v type="int" >        8       27       58       59       64 </v>
   <v type="int" >        8       28       31       32       65 </v>
   <v type="int" >        8       27       28       31       65 </v>
   <v type="int" >        4       27       31       64       65 </v>
   <v type="int" >        4       31       32       65       69 </v>
   <v type="int" >        8       31       65       68       69 </v>
   <v type="int" >        8       31       64       65       68 </v>
   <v type="int" >        8       32       32       35       69 </v>
   <v type="int" >        8       31       32       32       69 </v>
   <v type="int" >        4       31       32       68       69 </v>
   <v type="int" >        4       32       35       69       72 </v>
   <v type="int" >        8       32       69       69       72 </v>
   <v type="int" >        8       32       68       69       69 </v>
   <v type="int" >        8       33       35       36       72 </v>
   <v type="int" >        8       32       33       35       72 </v>
   <v type="int" >        4       32       33       69       72 </v>
   <v type="int" >        4       33       36       72       73 </v>
   <v type="int" >        8       33       70       72       73 </v>
   <v type="int" >        8       33       69       70       72 </v>
   <v type="int" >        8       34       36       36       73 </v>
   <v type="int" >        8       33       34       36       73 </v>
   <v type="int" >        4       33       34       70       73 </v>
   <v type="int" >        4       34       36       73       73 </v>
   <v type="int" >        4       34       71       73       73 </v>
   <v type="int" >        8       34       70       71       73 </v>
   <v type="int" >        8       33       35       36       73 </v>
   <v type="int" >        4       33       34       71       73 </v>
   <v type="int" >        4       33       35       72       73 </v>
   <v type="int" >        8       33       70       71       73 </v>
   <v type="int" >        4       32       32       35       72 </v>
   <v type="int" >        4       32       33       70       72 </v>
   <v type="int" >        4       32       32       69       72 </v>
   <v type="int" >        8       32       69       70       72 </v>
   <v type="int" >        4       31       32       69       69 </v>
   <v type="int" >        4       28       31       65       69 </v>
   <v type="int" >        4       31       68       69       69 </v>
   <v type="int" >        4       27       31       65       68 </v>
   <v type="int" >        4       22       27       59       65 </v>
   <v type="int" >        4       21       27       59       64 </v>
   <v type="int" >        4       15       21       52       59 </v>
   <v type="int" >        4       14       21       52       58 </v>
   <v type="int" >        4        6       14       43       52 </v>
   <v type="int" >        4        5       14       43       51 </v>
   <v type="int" >        8        7       15       16       44 </v>
   <v type="int" >        8        6        7       15       44 </v>
   <v type="int" >        4        6       15       43       44 </v>
   <v type="int" >        4       15       16       44       53 </v>
   <v type="int" >        8       15       44       52       53 </v>
   <v type="int" >        8       15       43       44       52 </v>
   <v type="int" >        8       16       22       23       53 </v>
   <v type="int" >        8       15       16       22       53 </v>
   <v type="int" >        4       15       22       52       53 </v>
   <v type="int" >        4       22       23       53       60 </v>
   <v type="int" >        8       22       53       59       60 </v>
   <v type="int" >        8       22       52       53       59 </v>
   <v type="int" >        8       23       28       29       60 </v>
   <v type="int" >        8       22       23       28       60 </v>
   <v type="int" >        4       22       28       59       60 </v>
   <v type="int" >        4       28       29       60       66 </v>
   <v type="int" >        8       28       60       65       66 </v>
   <v type="int" >        8       28       59       60       65 </v>
   <v type="int" >        8       29       32       33       66 </v>
   <v type="int" >        8       28       29       32       66 </v>
   <v type="int" >        4       28       32       65       66 </v>
   <v type="int" >        4       32       33       66       70 </v>
   <v type="int" >        8       32       66       69       70 </v>
   <v type="int" >        8       32       65       66       69 </v>
   <v type="int" >        8       33       35       36       70 </v>
   <v type="int" >        8       32       33       35       70 </v>
   <v type="int" >        4       32       35       69       70 </v>
   <v type="int" >        4       35       36       70       73 </v>
   <v type="int" >        8       35       70       72       73 </v>
   <v type="int" >        8       35       69       70       72 </v>
   <v type="int" >       16       36       36       37       73 </v>
   <v type="int" >        8       35       36       36       73 </v>
   <v type="int" >        4       35       36       72       73 </v>
   <v type="int" >        8       36       37       73       74 </v>
   <v type="int" >       16       36       73       73       74 </v>
   <v type="int" >        8       36       72       73       73 </v>
   <v type="int" >        8       36       36       37       74 </v>
   <v type="int" >        8       36       36       73       74 </v>
   <v type="int" >        4       35       36       73       73 </v>
   <v type="int" >        4       33       35       70       73 </v>
   <v type="int" >        4       35       72       73       73 </v>
   <v type="int" >        4       32       35       70       72 </v>
   <v type="int" >        4       29       32       66       70 </v>
   <v type="int" >        4       28       32       66       69 </v>
   <v type="int" >        4       23       28       60       66 </v>
   <v type="int" >        4       22       28       60       65 </v>
   <v type="int" >        4       16       22       53       60 </v>
   <v type="int" >        4       15       22       53       59 </v>
   <v type="int" >        4        7       15       44       53 </v>
   <v type="int" >        4        6       15       44       52 </v>
   <v type="int" >        8        8       16       17       45 </v>
   <v type="int" >        8        7        8       16       45 </v>
   <v type="int" >        4        7       16       44       45 </v>
   <v type="int" >        4       16       17       45       54 </v>
   <v type="int" >        8       16       45       53       54 </v>
   <v type="int" >        8       16       44       45       53 </v>
   <v type="int" >        8       17       23       24       54 </v>
   <v type="int" >        8       16       17       23       54 </v>
   <v type="int" >        4       16       23       53       54 </v>
   <v type="int" >        4       23       24       54       61 </v>
   <v type="int" >        8       23       54       60       61 </v>
   <v type="int" >        8       23       53       54       60 </v>
   <v type="int" >        8       24       29       30       61 </v>
   <v type="int" >        8       23       24       29       61 </v>
   <v type="int" >        4       23       29       60       61 </v>
   <v type="int" >        4       29       30       61       67 </v>
   <v type="int" >        8       29       61       66       67 </v>
   <v type="int" >        8       29       60       61       66 </v>
   <v type="int" >        8       30       33       34       67 </v>
   <v type="int" >        8       29       30       33       67 </v>
   <v type="int" >        4       29       33       66       67 </v>
   <v type="int" >        4       33       34       67       71 </v>
   <v type="int" >        8       33       67       70       71 </v>
   <v type="int" >        8       33       66       67       70 </v>
   <v type="int" >        4       34       36       36       71 </v>
   <v type="int" >        8       33       34       36       71 </v>
   <v type="int" >        4       33       36       70       71 </v>
   <v type="int" >        4       36       36       71       73 </v>
   <v type="int" >        8       36       71       73       73 </v>
   <v type="int" >        8       36       70       71       73 </v>
   <v type="int" >        8       36       37       73       73 </v>
   <v type="int" >        8       37       73       73       74 </v>
   <v type="int" >        4       34       36       71       73 </v>
   <v type="int" >        4       33       36       71       73 </v>
   <v type="int" >        4       30       33       67       71 </v>
   <v type="int" >        4       29       33       67       70 </v>
   <v type="int" >        4       24       29       61       67 </v>
   <v type="int" >        4       23       29       61       66 </v>
   <v type="int" >        4       17       23       54       61 </v>
   <v type="int" >        4       16       23       54       60 </v>
   <v type="int" >        4        8       16       45       54 </v>
   <v type="int" >        4        7       16       45       53 </v>
   <v type="int" >        8        9       17       18       46 </v>
   <v type="int" >        8        8        9       17       46 </v>
   <v type="int" >        4        8       17       45       46 </v>
   <v type="int" >        4       17       18       46       55 </v>
   <v type="int" >        8       17       46       54       55 </v>
   <v type="int" >        8       17       45       46       54 </v>
   <v type="int" >        8       18       24       25       55 </v>
   <v type="int" >        8       17       18       24       55 </v>
   <v type="int" >        4       17       24       54       55 </v>
   <v type="int" >        4       24       25       55       62 </v>
   <v type="int" >        8       24       55       61       62 </v>
   <v type="int" >        8       24       54       55       61 </v>
   <v type="int" >        4       25       30       30       62 </v>
   <v type="int" >        8       24       25       30       62 </v>
   <v type="int" >        4       24       30       61       62 </v>
   <v type="int" >        4       30       30       62       67 </v>
   <v type="int" >        8       30       62       67       67 </v>
   <v type="int" >        8       30       61       62       67 </v>
   <v type="int" >        8       30       30       34       67 </v>
   <v type="int" >        4       30       34       67       67 </v>
   <v type="int" >        4       33       34       67       70 </v>
   <v type="int" >        8       34       67       70       71 </v>
   <v type="int" >        4       34       67       67       71 </v>
   <v type="int" >        8       33       34       36       70 </v>
   <v type="int" >        4       34       36       70       71 </v>
   <v type="int" >        4       35       36       70       72 </v>
   <v type="int" >        8       36       70       72       73 </v>
   <v type="int" >        4       35       36       36       72 </v>
   <v type="int" >        4       36       36       72       73 </v>
   <v type="int" >        4       33       36       70       72 </v>
   <v type="int" >        4       34       36       70       73 </v>
   <v type="int" >        4       30       34       67       70 </v>
   <v type="int" >        4       30       34       67       71 </v>
   <v type="int" >        4       25       30       62       67 </v>
   <v type="int" >        4       24       30       62       67 </v>
   <v type="int" >        4       18       24       55       62 </v>
   <v type="int" >        4       17       24       55       61 </v>
   <v type="int" >        4        9       17       46       55 </v>
   <v type="int" >        4        8       17       46       54 </v>
   <v type="int" >        4       10       18       18       47 </v>
   <v type="int" >        8        9       10       18       47 </v>
   <v type="int" >        4        9       18       46       47 </v>
   <v type="int" >        4       18       18       47       55 </v>
   <v type="int" >        8       18       47       55       55 </v>
   <v type="int" >        8       18       46       47       55 </v>
   <v type="int" >        8       18       18       25       55 </v>
   <v type="int" >        4       18       25       55       55 </v>
   <v type="int" >        4       24       25       55       61 </v>
   <v type="int" >        8       25       55       61       62 </v>
   <v type="int" >        4       25       55       55       62 </v>
   <v type="int" >        8       24       25       30       61 </v>
   <v type="int" >        4       25       30       61       62 </v>
   <v type="int" >        4       29       30       61       66 </v>
   <v type="int" >        8       30       61       66       67 </v>
   <v type="int" >        8       29       30       33       66 </v>
   <v type="int" >        4       30       33       66       67 </v>
   <v type="int" >        4       32       33       66       69 </v>
   <v type="int" >        8       33       66       69       70 </v>
   <v type="int" >        8       32       33       35       69 </v>
   <v type="int" >        4       33       35       69       70 </v>
   <v type="int" >        4       32       35       69       69 </v>
   <v type="int" >        4       35       69       69       72 </v>
   <v type="int" >        4       33       35       69       72 </v>
   <v type="int" >        4       29       33       66       69 </v>
   <v type="int" >        4       30       33       66       70 </v>
   <v type="int" >        4       24       30       61       66 </v>
   <v type="int" >        4       25       30       61       67 </v>
   <v type="int" >        4       18       25       55       61 </v>
   <v type="int" >        4       18       25       55       62 </v>
   <v type="int" >        4       10       18       47       55 </v>
   <v type="int" >        4        9       18       47       55 </v>
   <v type="int" >        8        9       10       18       46 </v>
   <v type="int" >        4       10       18       46       47 </v>
   <v type="int" >        4       17       18       46       54 </v>
   <v type="int" >        8       18       46       54       55 </v>
   <v type="int" >        8       17       18       24       54 </v>
   <v type="int" >        4       18       24       54       55 </v>
   <v type="int" >        4       23       24       54       60 </v>
   <v type="int" >        8       24       54       60       61 </v>
   <v type="int" >        8       23       24       29       60 </v>
   <v type="int" >        4       24       29       60       61 </v>
   <v type="int" >        4       28       29       60       65 </v>
   <v type="int" >        8       29       60       65       66 </v>
   <v type="int" >        8       28       29       32       65 </v>
   <v type="int" >        4       29       32       65       66 </v>
   <v type="int" >        4       31       32       65       68 </v>
   <v type="int" >        8       32       65       68       69 </v>
   <v type="int" >        4       31       32       32       68 </v>
   <v type="int" >        4       32       32       68       69 </v>
   <v type="int" >        4       28       32       65       68 </v>
   <v type="int" >        4       29       32       65       69 </v>
   <v type="int" >        4       23       29       60       65 </v>
   <v type="int" >        4       24       29       60       66 </v>
   <v type="int" >        4       17       24       54       60 </v>
   <v type="int" >        4       18       24       54       61 </v>
   <v type="int" >        4        9       18       46       54 </v>
   <v type="int" >        4       10       18       46       55 </v>
   <v type="int" >        8        8        9       17       45 </v>
   <v type="int" >        4        9       17       45       46 </v>
   <v type="int" >        4       16       17       45       53 </v>
   <v type="int" >        8       17       45       53       54 </v>
   <v type="int" >        8       16       17       23       53 </v>
   <v type="int" >        4       17       23       53       54 </v>
   <v type="int" >        4       22       23       53       59 </v>
   <v type="int" >        8       23       53       59       60 </v>
   <v type="int" >        8       22       23       28       59 </v>
   <v type="int" >        4       23       28       59       60 </v>
   <v type="int" >        4       27       28       59       64 </v>
   <v type="int" >        8       28       59       64       65 </v>
   <v type="int" >        8       27       28       31       64 </v>
   <v type="int" >        4       28       31       64       65 </v>
   <v type="int" >        4       27       31       64       64 </v>
   <v type="int" >        4       31       64       64       68 </v>
   <v type="int" >        4       28       31       64       68 </v>
   <v type="int" >        4       22       28       59       64 </v>
   <v type="int" >        4       23       28       59       65 </v>
   <v type="int" >        4       16       23       53       59 </v>
   <v type="int" >        4       17       23       53       60 </v>
   <v type="int" >        4        8       17       45       53 </v>
   <v type="int" >        4        9       17       45       54 </v>
   <v type="int" >        8        7        8       16       44 </v>
   <v type="int" >        4        8       16       44       45 </v>
   <v type="int" >        4       15       16       44       52 </v>
   <v type="int" >        8       16       44       52       53 </v>
   <v type="int" >        8       15       16       22       52 </v>
   <v type="int" >        4       16       22       52       53 </v>
   <v type="int" >        4       21       22       52       58 </v>
   <v type="int" >        8       22       52       58       59 </v>
   <v type="int" >        8       21       22       27       58 </v>
   <v type="int" >        4       22       27       58       59 </v>
   <v type="int" >        4       26       27       58       63 </v>
   <v type="int" >        8       27       58       63       64 </v>
   <v type="int" >        4       26       27       27       63 </v>
   <v type="int" >        4       27       27       63       64 </v>
   <v type="int" >        4       21       27       58       63 </v>
   <v type="int" >        4       22       27       58       64 </v>
   <v type="int" >        4       15       22       52       58 </v>
   <v type="int" >        4       16       22       52       59 </v>
   <v type="int" >        4        7       16       44       52 </v>
   <v type="int" >        4        8       16       44       53 </v>
   <v type="int" >        8        6        7       15       43 </v>
   <v type="int" >        4        7       15       43       44 </v>
   <v type="int" >        4       14       15       43       51 </v>
   <v type="int" >        8       15       43       51       52 </v>
   <v type="int" >        8       14       15       21       51 </v>
   <v type="int" >        4       15       21       51       52 </v>
   <v type="int" >        4       20       21       51       57 </v>
   <v type="int" >        8       21       51       57       58 </v>
   <v type="int" >        8       20       21       26       57 </v>
   <v type="int" >        4       21       26       57       58 </v>
   <v type="int" >        4       20       26       57       57 </v>
   <v type="int" >        4       26       57       57       63 </v>
   <v type="int" >        4       21       26       57       63 </v>
   <v type="int" >        4       14       21       51       57 </v>
   <v type="int" >        4       15       21       51       58 </v>
   <v type="int" >        4        6       15       43       51 </v>
   <v type="int" >        4        7       15       43       52 </v>
   <v type="int" >        8        5        6       14       42 </v>
   <v type="int" >        4        6       14       42       43 </v>
   <v type="int" >        4       13       14       42       50 </v>
   <v type="int" >        8       14       42       50       51 </v>
   <v type="int" >        8       13       14       20       50 </v>
   <v type="int" >        4       14       20       50       51 </v>
   <v type="int" >        4       19       20       50       56 </v>
   <v type="int" >        8       20       50       56       57 </v>
   <v type="int" >        4       19       20       20       56 </v>
   <v type="int" >        4       20       20       56       57 </v>
   <v type="int" >        4       13       20       50       56 </v>
   <v type="int" >        4       14       20       50       57 </v>
   <v type="int" >        4        5       14       42       50 </v>
   <v type="int" >        4        6       14       42       51 </v>
   <v type="int" >        8        4        5       13       41 </v>
   <v type="int" >        4        5       13       41       42 </v>
   <v type="int" >        4       12       13       41       49 </v>
   <v type="int" >        8       13       41       49       50 </v>
   <v type="int" >        8       12       13       19       49 </v>
   <v type="int" >        4       13       19       49       50 </v>
   <v type="int" >        4       12       19       49       49 </v>
   <v type="int" >        4       19       49       49       56 </v>
   <v type="int" >        4       13       19       49       56 </v>
   <v type="int" >        4        4       13       41       49 </v>
   <v type="int" >        4        5       13       41       50 </v>
   <v type="int" >        8        3        4       12       40 </v>
   <v type="int" >        4        4       12       40       41 </v>
   <v type="int" >        4       11       12       40       48 </v>
   <v type="int" >        8       12       40       48       49 </v>
   <v type="int" >        4       11       12       12       48 </v>
   <v type="int" >        4       12       12       48       49 </v>
   <v type="int" >        4        3       12       40       48 </v>
   <v type="int" >        4        4       12       40       49 </v>
   <v type="int" >        8        2        3       11       39 </v>
   <v type="int" >        4        3       11       39       40 </v>
   <v type="int" >        4        2       11       39       39 </v>
   <v type="int" >        4       11       39       39       48 </v>
   <v type="int" >        4        3       11       39       48 </v>
   <v type="int" >        4        1        2        2       38 </v>
   <v type="int" >        4        2        2       38       39 </v>
   <v type="int" >        8       39       39       48       76 </v>
   <v type="int" >        8       38       39       39       76 </v>
   <v type="int" >        4       38       39       75       76 </v>
   <v type="int" >        4       39       48       76       85 </v>
   <v type="int" >        8       39       76       76       85 </v>
   <v type="int" >        8       39       75       76       76 </v>
   <v type="int" >        8       40       48       49       85 </v>
   <v type="int" >        8       39       40       48       85 </v>
   <v type="int" >        4       39       40       76       85 </v>
   <v type="int" >        4       40       49       85       86 </v>
   <v type="int" >        8       40       77       85       86 </v>
   <v type="int" >        8       40       76       77       85 </v>
   <v type="int" >        8       41       49       50       86 </v>
   <v type="int" >        8       40       41       49       86 </v>
   <v type="int" >        4       40       41       77       86 </v>
   <v type="int" >        4       41       50       86       87 </v>
   <v type="int" >        8       41       78       86       87 </v>
   <v type="int" >        8       41       77       78       86 </v>
   <v type="int" >        8       42       50       51       87 </v>
   <v type="int" >        8       41       42       50       87 </v>
   <v type="int" >        4       41       42       78       87 </v>
   <v type="int" >        4       42       51       87       88 </v>
   <v type="int" >        8       42       79       87       88 </v>
   <v type="int" >        8       42       78       79       87 </v>
   <v type="int" >        8       43       51       52       88 </v>
   <v type="int" >        8       42       43       51       88 </v>
   <v type="int" >        4       42       43       79       88 </v>
   <v type="int" >        4       43       52       88       89 </v>
   <v type="int" >        8       43       80       88       89 </v>
   <v type="int" >        8       43       79       80       88 </v>
   <v type="int" >        8       44       52       53       89 </v>
   <v type="int" >        8       43       44       52       89 </v>
   <v type="int" >        4       43       44       80       89 </v>
   <v type="int" >        4       44       53       89       90 </v>
   <v type="int" >        8       44       81       89       90 </v>
   <v type="int" >        8       44       80       81       89 </v>
   <v type="int" >        8       45       53       54       90 </v>
   <v type="int" >        8       44       45       53       90 </v>
   <v type="int" >        4       44       45       81       90 </v>
   <v type="int" >        4       45       54       90       91 </v>
   <v type="int" >        8       45       82       90       91 </v>
   <v type="int" >        8       45       81       82       90 </v>
   <v type="int" >        8       46       54       55       91 </v>
   <v type="int" >        8       45       46       54       91 </v>
   <v type="int" >        4       45       46       82       91 </v>
   <v type="int" >        4       46       55       91       92 </v>
   <v type="int" >        8       46       83       91       92 </v>
   <v type="int" >        8       46       82       83       91 </v>
   <v type="int" >        8       47       55       55       92 </v>
   <v type="int" >        8       46       47       55       92 </v>
   <v type="int" >        4       46       47       83       92 </v>
   <v type="int" >        4       47       55       92       92 </v>
   <v type="int" >        4       47       84       92       92 </v>
   <v type="int" >        8       47       83       84       92 </v>
   <v type="int" >        8       46       54       55       92 </v>
   <v type="int" >        4       46       47       84       92 </v>
   <v type="int" >        4       46       54       91       92 </v>
   <v type="int" >        8       46       83       84       92 </v>
   <v type="int" >        8       45       53       54       91 </v>
   <v type="int" >        4       45       46       83       91 </v>
   <v type="int" >        4       45       53       90       91 </v>
   <v type="int" >        8       45       82       83       91 </v>
   <v type="int" >        8       44       52       53       90 </v>
   <v type="int" >        4       44       45       82       90 </v>
   <v type="int" >        4       44       52       89       90 </v>
   <v type="int" >        8       44       81       82       90 </v>
   <v type="int" >        8       43       51       52       89 </v>
   <v type="int" >        4       43       44       81       89 </v>
   <v type="int" >        4       43       51       88       89 </v>
   <v type="int" >        8       43       80       81       89 </v>
   <v type="int" >        8       42       50       51       88 </v>
   <v type="int" >        4       42       43       80       88 </v>
   <v type="int" >        4       42       50       87       88 </v>
   <v type="int" >        8       42       79       80       88 </v>
   <v type="int" >        8       41       49       50       87 </v>
   <v type="int" >        4       41       42       79       87 </v>
   <v type="int" >        4       41       49       86       87 </v>
   <v type="int" >        8       41       78       79       87 </v>
   <v type="int" >        8       40       48       49       86 </v>
   <v type="int" >        4       40       41       78       86 </v>
   <v type="int" >        4       40       48       85       86 </v>
   <v type="int" >        8       40       77       78       86 </v>
   <v type="int" >        4       39       39       48       85 </v>
   <v type="int" >        4       39       40       77       85 </v>
   <v type="int" >        4       39       39       76       85 </v>
   <v type="int" >        8       39       76       77       85 </v>
   <v type="int" >        4       38       39       76       76 </v>
   <v type="int" >        4       38       75       76       76 </v>
   <v type="int" >        8       40       48       49       77 </v>
   <v type="int" >        8       39       40       48       77 </v>
   <v type="int" >        4       39       48       76       77 </v>
   <v type="int" >        4       48       49       77       86 </v>
   <v type="int" >        8       48       77       85       86 </v>
   <v type="int" >        8       48       76       77       85 </v>
   <v type="int" >        8       49       49       56       86 </v>
   <v type="int" >        8       48       49       49       86 </v>
   <v type="int" >        4       48       49       85       86 </v>
   <v type="int" >        4       49       56       86       93 </v>
   <v type="int" >        8       49       86       86       93 </v>
   <v type="int" >        8       49       85       86       86 </v>
   <v type="int" >        8       50       56       57       93 </v>
   <v type="int" >        8       49       50       56       93 </v>
   <v type="int" >        4       49       50       86       93 </v>
   <v type="int" >        4       50       57       93       94 </v>
   <v type="int" >        8       50       87       93       94 </v>
   <v type="int" >        8       50       86       87       93 </v>
   <v type="int" >        8       51       57       58       94 </v>
   <v type="int" >        8       50       51       57       94 </v>
   <v type="int" >        4       50       51       87       94 </v>
   <v type="int" >        4       51       58       94       95 </v>
   <v type="int" >        8       51       88       94       95 </v>
   <v type="int" >        8       51       87       88       94 </v>
   <v type="int" >        8       52       58       59       95 </v>
   <v type="int" >        8       51       52       58       95 </v>
   <v type="int" >        4       51       52       88       95 </v>
   <v type="int" >        4       52       59       95       96 </v>
   <v type="int" >        8       52       89       95       96 </v>
   <v type="int" >        8       52       88       89       95 </v>
   <v type="int" >        8       53       59       60       96 </v>
   <v type="int" >        8       52       53       59       96 </v>
   <v type="int" >        4       52       53       89       96 </v>
   <v type="int" >        4       53       60       96       97 </v>
   <v type="int" >        8       53       90       96       97 </v>
   <v type="int" >        8       53       89       90       96 </v>
   <v type="int" >        8       54       60       61       97 </v>
   <v type="int" >        8       53       54       60       97 </v>
   <v type="int" >        4       53       54       90       97 </v>
   <v type="int" >        4       54       61       97       98 </v>
   <v type="int" >        8       54       91       97       98 </v>
   <v type="int" >        8       54       90       91       97 </v>
   <v type="int" >        8       55       61       62       98 </v>
   <v type="int" >        8       54       55       61       98 </v>
   <v type="int" >        4       54       55       91       98 </v>
   <v type="int" >        4       55       62       98       99 </v>
   <v type="int" >        8       55       92       98       99 </v>
   <v type="int" >        8       55       91       92       98 </v>
   <v type="int" >        8       55       61       62       99 </v>
   <v type="int" >        4       55       55       62       99 </v>
   <v type="int" >        4       55       55       92       99 </v>
   <v type="int" >        4       55       61       98       99 </v>
   <v type="int" >        8       55       92       92       99 </v>
   <v type="int" >        8       54       60       61       98 </v>
   <v type="int" >        4       54       55       92       98 </v>
   <v type="int" >        4       54       60       97       98 </v>
   <v type="int" >        8       54       91       92       98 </v>
   <v type="int" >        8       53       59       60       97 </v>
   <v type="int" >        4       53       54       91       97 </v>
   <v type="int" >        4       53       59       96       97 </v>
   <v type="int" >        8       53       90       91       97 </v>
   <v type="int" >        8       52       58       59       96 </v>
   <v type="int" >        4       52       53       90       96 </v>
   <v type="int" >        4       52       58       95       96 </v>
   <v type="int" >        8       52       89       90       96 </v>
   <v type="int" >        8       51       57       58       95 </v>
   <v type="int" >        4       51       52       89       95 </v>
   <v type="int" >        4       51       57       94       95 </v>
   <v type="int" >        8       51       88       89       95 </v>
   <v type="int" >        8       50       56       57       94 </v>
   <v type="int" >        4       50       51       88       94 </v>
   <v type="int" >        4       50       56       93       94 </v>
   <v type="int" >        8       50       87       88       94 </v>
   <v type="int" >        4       49       49       56       93 </v>
   <v type="int" >        4       49       50       87       93 </v>
   <v type="int" >        4       49       49       86       93 </v>
   <v type="int" >        8       49       86       87       93 </v>
   <v type="int" >        4       48       49       86       86 </v>
   <v type="int" >        4       40       48       77       86 </v>
   <v type="int" >        4       48       85       86       86 </v>
   <v type="int" >        4       39       48       77       85 </v>
   <v type="int" >        8       41       49       50       78 </v>
   <v type="int" >        8       40       41       49       78 </v>
   <v type="int" >        4       40       49       77       78 </v>
   <v type="int" >        4       49       50       78       87 </v>
   <v type="int" >        8       49       78       86       87 </v>
   <v type="int" >        8       49       77       78       86 </v>
   <v type="int" >        8       50       56       57       87 </v>
   <v type="int" >        8       49       50       56       87 </v>
   <v type="int" >        4       49       56       86       87 </v>
   <v type="int" >        4       56       57       87       94 </v>
   <v type="int" >        8       56       87       93       94 </v>
   <v type="int" >        8       56       86       87       93 </v>
   <v type="int" >        8       57       57       63       94 </v>
   <v type="int" >        8       56       57       57       94 </v>
   <v type="int" >        4       56       57       93       94 </v>
   <v type="int" >        4       57       63       94      100 </v>
   <v type="int" >        8       57       94       94      100 </v>
   <v type="int" >        8       57       93       94       94 </v>
   <v type="int" >        8       58       63       64      100 </v>
   <v type="int" >        8       57       58       63      100 </v>
   <v type="int" >        4       57       58       94      100 </v>
   <v type="int" >        4       58       64      100      101 </v>
   <v type="int" >        8       58       95      100      101 </v>
   <v type="int" >        8       58       94       95      100 </v>
   <v type="int" >        8       59       64       65      101 </v>
   <v type="int" >        8       58       59       64      101 </v>
   <v type="int" >        4       58       59       95      101 </v>
   <v type="int" >        4       59       65      101      102 </v>
   <v type="int" >        8       59       96      101      102 </v>
   <v type="int" >        8       59       95       96      101 </v>
   <v type="int" >        8       60       65       66      102 </v>
   <v type="int" >        8       59       60       65      102 </v>
   <v type="int" >        4       59       60       96      102 </v>
   <v type="int" >        4       60       66      102      103 </v>
   <v type="int" >        8       60       97      102      103 </v>
   <v type="int" >        8       60       96       97      102 </v>
   <v type="int" >        8       61       66       67      103 </v>
   <v type="int" >        8       60       61       66      103 </v>
   <v type="int" >        4       60       61       97      103 </v>
   <v type="int" >        4       61       67      103      104 </v>
   <v type="int" >        8       61       98      103      104 </v>
   <v type="int" >        8       61       97       98      103 </v>
   <v type="int" >        8       62       67       67      104 </v>
   <v type="int" >        8       61       62       67      104 </v>
   <v type="int" >        4       61       62       98      104 </v>
   <v type="int" >        4       62       67      104      104 </v>
   <v type="int" >        4       62       99      104      104 </v>
   <v type="int" >        8       62       98       99      104 </v>
   <v type="int" >        8       61       66       67      104 </v>
   <v type="int" >        4       61       62       99      104 </v>
   <v type="int" >        4       61       66      103      104 </v>
   <v type="int" >        8       61       98       99      104 </v>
   <v type="int" >        8       60       65       66      103 </v>
   <v type="int" >        4       60       61       98      103 </v>
   <v type="int" >        4       60       65      102      103 </v>
   <v type="int" >        8       60       97       98      103 </v>
   <v type="int" >        8       59       64       65      102 </v>
   <v type="int" >        4       59       60       97      102 </v>
   <v type="int" >        4       59       64      101      102 </v>
   <v type="int" >        8       59       96       97      102 </v>
   <v type="int" >        8       58       63       64      101 </v>
   <v type="int" >        4       58       59       96      101 </v>
   <v type="int" >        4       58       63      100      101 </v>
   <v type="int" >        8       58       95       96      101 </v>
   <v type="int" >        4       57       57       63      100 </v>
   <v type="int" >        4       57       58       95      100 </v>
   <v type="int" >        4       57       57       94      100 </v>
   <v type="int" >        8       57       94       95      100 </v>
   <v type="int" >        4       56       57       94       94 </v>
   <v type="int" >        4       50       56       87       94 </v>
   <v type="int" >        4       56       93       94       94 </v>
   <v type="int" >        4       49       56       87       93 </v>
   <v type="int" >        4       41       49       78       87 </v>
   <v type="int" >        4       40       49       78       86 </v>
   <v type="int" >        8       42       50       51       79 </v>
   <v type="int" >        8       41       42       50       79 </v>
   <v type="int" >        4       41       50       78       79 </v>
   <v type="int" >        4       50       51       79       88 </v>
   <v type="int" >        8       50       79       87       88 </v>
   <v type="int" >        8       50       78       79       87 </v>
   <v type="int" >        8       51       57       58       88 </v>
   <v type="int" >        8       50       51       57       88 </v>
   <v type="int" >        4       50       57       87       88 </v>
   <v type="int" >        4       57       58       88       95 </v>
   <v type="int" >        8       57       88       94       95 </v>
   <v type="int" >        8       57       87       88       94 </v>
   <v type="int" >        8       58       63       64       95 </v>
   <v type="int" >        8       57       58       63       95 </v>
   <v type="int" >        4       57       63       94       95 </v>
   <v type="int" >        4       63       64       95      101 </v>
   <v type="int" >        8       63       95      100      101 </v>
   <v type="int" >        8       63       94       95      100 </v>
   <v type="int" >        8       64       64       68      101 </v>
   <v type="int" >        8       63       64       64      101 </v>
   <v type="int" >        4       63       64      100      101 </v>
   <v type="int" >        4       64       68      101      105 </v>
   <v type="int" >        8       64      101      101      105 </v>
   <v type="int" >        8       64      100      101      101 </v>
   <v type="int" >        8       65       68       69      105 </v>
   <v type="int" >        8       64       65       68      105 </v>
   <v type="int" >        4       64       65      101      105 </v>
   <v type="int" >        4       65       69      105      106 </v>
   <v type="int" >        8       65      102      105      106 </v>
   <v type="int" >        8       65      101      102      105 </v>
   <v type="int" >        8       66       69       70      106 </v>
   <v type="int" >        8       65       66       69      106 </v>
   <v type="int" >        4       65       66      102      106 </v>
   <v type="int" >        4       66       70      106      107 </v>
   <v type="int" >        8       66      103      106      107 </v>
   <v type="int" >        8       66      102      103      106 </v>
   <v type="int" >        8       67       70       71      107 </v>
   <v type="int" >        8       66       67       70      107 </v>
   <v type="int" >        4       66       67      103      107 </v>
   <v type="int" >        4       67       71      107      108 </v>
   <v type="int" >        8       67      104      107      108 </v>
   <v type="int" >        8       67      103      104      107 </v>
   <v type="int" >        8       67       70       71      108 </v>
   <v type="int" >        4       67       67       71      108 </v>
   <v type="int" >        4       67       67      104      108 </v>
   <v type="int" >        4       67       70      107      108 </v>
   <v type="int" >        8       67      104      104      108 </v>
   <v type="int" >        8       66       69       70      107 </v>
   <v type="int" >        4       66       67      104      107 </v>
   <v type="int" >        4       66       69      106      107 </v>
   <v type="int" >        8       66      103      104      107 </v>
   <v type="int" >        8       65       68       69      106 </v>
   <v type="int" >        4       65       66      103      106 </v>
   <v type="int" >        4       65       68      105      106 </v>
   <v type="int" >        8       65      102      103      106 </v>
   <v type="int" >        4       64       64       68      105 </v>
   <v type="int" >        4       64       65      102      105 </v>
   <v type="int" >        4       64       64      101      105 </v>
   <v type="int" >        8       64      101      102      105 </v>
   <v type="int" >        4       63       64      101      101 </v>
   <v type="int" >        4       58       63       95      101 </v>
   <v type="int" >        4       63      100      101      101 </v>
   <v type="int" >        4       57       63       95      100 </v>
   <v type="int" >        4       51       57       88       95 </v>
   <v type="int" >        4       50       57       88       94 </v>
   <v type="int" >        4       42       50       79       88 </v>
[...]
        <r>  0.0000  0.0000  0.0000  0.0000  0.0000  0.0000  0.0000  0.0000  0.0000 </r>
       </set>
       <set comment="band 2">
        <r>  0.0000  0.0000  0.0000  0.0000  0.0000  0.0000  0.0000  0.0000  0.0000 </r>
        <r>  0.2542  0.0729  0.0000  0.0273  0.0000  0.0000  0.0000  0.0000  0.0000 </r>
        <r>  0.0000  0.0000  0.0000  0.0000  0.0000  0.0000  0.0000  0.0000  0.0000 </r>
        <r>  0.2533  0.0731  0.0000  0.0274  0.0000  0.0000  0.0000  0.0000  0.0000 </r>
       </set>
       <set comment="band 3">
        <r>  0.2136  0.0933  0.0000  0.0697  0.0000  0.0000  0.0000  0.0000  0.0000 </r>
        <r>  0.0000  0.0000  0.0000  0.0000  0.0000  0.0000  0.0000  0.0000  0.0000 </r>
        <r>  0.2141  0.0929  0.0000  0.0696  0.0000  0.0000  0.0000  0.0000  0.0000 </r>
        <r>  0.0000  0.0000  0.0000  0.0000  0.0000  0.0000  0.0000  0.0000  0.0000 </r>
       </set>
       <set comment="band 4">
        <r>  0.0000  0.0000  0.0000  0.0000  0.0000  0.0000  0.0000  0.0000  0.0000 </r>
        <r>  0.2136  0.0933  0.0000  0.0697  0.0000  0.0000  0.0000  0.0000  0.0000 </r>
        <r>  0.0000  0.0000  0.0000  0.0000  0.0000  0.0000  0.0000  0.0000  0.0000 </r>
        <r>  0.2141  0.0929  0.0000  0.0696  0.0000  0.0000  0.0000  0.0000  0.0000 </r>
       </set>
       <set comment="band 5">
        <r>  0.0000  0.0000  0.0000  0.0000  0.0000  0.0000  0.0000  0.0000  0.0000 </r>
        <r>  0.0231  0.1188  0.0000  0.1957  0.0000  0.0000  0.0000  0.0000  0.0000 </r>
        <r>  0.0000  0.0000  0.0000  0.0000  0.0000  0.0000  0.0000  0.0000  0.0000 </r>
        <r>  0.0233  0.1189  0.0000  0.1954  0.0000  0.0000  0.0000  0.0000  0.0000 </r>
       </set>
       <set comment="band 6">
        <r>  0.0231  0.1188  0.0000  0.1957  0.0000  0.0000  0.0000  0.0000  0.0000 </r>
        <r>  0.0000  0.0000  0.0000  0.0000  0.0000  0.0000  0.0000  0.0000  0.0000 </r>
        <r>  0.0233  0.1189  0.0000  0.1954  0.0000  0.0000  0.0000  0.0000  0.0000 </r>
        <r>  0.0000  0.0000  0.0000  0.0000  0.0000  0.0000  0.0000  0.0000  0.0000 </r>
       </set>
       <set comment="band 7">
        <r>  0.0000  0.0000  0.2503  0.0000  0.0000  0.0000  0.0000  0.0000  0.0000 </r>
        <r>  0.0002  0.0001  0.0000  0.0000  0.0000  0.0000  0.0000  0.0000  0.0000 </r>
        <r>  0.0000  0.0000  0.2476  0.0000  0.0000  0.0000  0.0000  0.0000  0.0000 </r>
        <r>  0.0001  0.0002  0.0000  0.0001  0.0000  0.0000  0.0000  0.0000  0.0000 </r>
       </set>
       <set comment="band 8">
        <r>  0.0002  0.0001  0.0000  0.0000  0.0000  0.0000  0.0000  0.0000  0.0000 </r>
        <r>  0.0000  0.0000  0.2503  0.0000  0.0000  0.0000  0.0000  0.0000  0.0000 </r>
        <r>  0.0001  0.0002  0.0000  0.0001  0.0000  0.0000  0.0000  0.0000  0.0000 </r>
        <r>  0.0000  0.0000  0.2476  0.0000  0.0000  0.0000  0.0000  0.0000  0.0000 </r>
       </set>
       <set comment="band 9">
        <r>  0.0000  0.0000  0.2678  0.0000  0.0000  0.0000  0.0000  0.0000  0.0000 </r>
        <r>  0.0000  0.0001  0.0000  0.0001  0.0000  0.0000  0.0000  0.0000  0.0000 </r>
        <r>  0.0000  0.0000  0.2707  0.0000  0.0000  0.0000  0.0000  0.0000  0.0000 </r>
        <r>  0.0000  0.0001  0.0000  0.0002  0.0000  0.0000  0.0000  0.0000  0.0000 </r>
       </set>
       <set comment="band 10">
        <r>  0.0000  0.0001  0.0000  0.0001  0.0000  0.0000  0.0000  0.0000  0.0000 </r>
        <r>  0.0000  0.0000  0.2678  0.0000  0.0000  0.0000  0.0000  0.0000  0.0000 </r>
        <r>  0.0000  0.0001  0.0000  0.0002  0.0000  0.0000  0.0000  0.0000  0.0000 </r>
        <r>  0.0000  0.0000  0.2707  0.0000  0.0000  0.0000  0.0000  0.0000  0.0000 </r>
       </set>
       <set comment="band 11">
        <r>  0.0000  0.0000  0.0220  0.0000  0.0000  0.0000  0.0000  0.0000  0.0000 </r>
        <r>  0.0022  0.0223  0.0000  0.0168  0.0000  0.0000  0.0000  0.0000  0.0000 </r>
        <r>  0.0000  0.0000  0.0203  0.0000  0.0000  0.0000  0.0000  0.0000  0.0000 </r>
        <r>  0.0001  0.0029  0.0000  0.0014  0.0000  0.0000  0.0000  0.0000  0.0000 </r>
       </set>
       <set comment="band 12">
        <r>  0.0022  0.0223  0.0000  0.0168  0.0000  0.0000  0.0000  0.0000  0.0000 </r>
        <r>  0.0000  0.0000  0.0220  0.0000  0.0000  0.0000  0.0000  0.0000  0.0000 </r>
        <r>  0.0001  0.0029  0.0000  0.0014  0.0000  0.0000  0.0000  0.0000  0.0000 </r>
        <r>  0.0000  0.0000  0.0203  0.0000  0.0000  0.0000  0.0000  0.0000  0.0000 </r>
       </set>
       <set comment="band 13">
        <r>  0.0000  0.0000  0.0126  0.0000  0.0000  0.0000  0.0000  0.0000  0.0000 </r>
        <r>  0.0561  0.0175  0.0000  0.0244  0.0000  0.0000  0.0000  0.0000  0.0000 </r>
        <r>  0.0000  0.0000  0.0014  0.0000  0.0000  0.0000  0.0000  0.0000  0.0000 </r>
        <r>  0.0410  0.1388  0.0000  0.1395  0.0000  0.0000  0.0000  0.0000  0.0000 </r>
       </set>
       <set comment="band 14">
        <r>  0.0561  0.0175  0.0000  0.0244  0.0000  0.0000  0.0000  0.0000  0.0000 </r>
        <r>  0.0000  0.0000  0.0126  0.0000  0.0000  0.0000  0.0000  0.0000  0.0000 </r>
        <r>  0.0410  0.1388  0.0000  0.1395  0.0000  0.0000  0.0000  0.0000  0.0000 </r>
        <r>  0.0000  0.0000  0.0014  0.0000  0.0000  0.0000  0.0000  0.0000  0.0000 </r>
       </set>
       <set comment="band 15">
        <r>  0.0251  0.0517  0.0000  0.1301  0.0000  0.0000  0.0000  0.0000  0.0000 </r>
        <r>  0.0000  0.0000  0.0003  0.0000  0.0000  0.0000  0.0000  0.0000  0.0000 </r>
        <r>  0.0537  0.0280  0.0000  0.0810  0.0000  0.0000  0.0000  0.0000  0.0000 </r>
        <r>  0.0000  0.0000  0.0136  0.0000  0.0000  0.0000  0.0000  0.0000  0.0000 </r>
       </set>
       <set comment="band 16">
        <r>  0.0000  0.0000  0.0003  0.0000  0.0000  0.0000  0.0000  0.0000  0.0000 </r>
        <r>  0.0251  0.0517  0.0000  0.1301  0.0000  0.0000  0.0000  0.0000  0.0000 </r>
        <r>  0.0000  0.0000  0.0136  0.0000  0.0000  0.0000  0.0000  0.0000  0.0000 </r>
        <r>  0.0537  0.0280  0.0000  0.0810  0.0000  0.0000  0.0000  0.0000  0.0000 </r>
       </set>
      </set>
      <set comment="kpoint 110">
       <set comment="band 1">
        <r>  0.2562  0.0713  0.0000  0.0372  0.0000  0.0000  0.0000  0.0000  0.0000 </r>
        <r>  0.0000  0.0000  0.0000  0.0000  0.0000  0.0000  0.0000  0.0000  0.0000 </r>
        <r>  0.2542  0.0717  0.0000  0.0377  0.0000  0.0000  0.0000  0.0000  0.0000 </r>
        <r>  0.0000  0.0000  0.0000  0.0000  0.0000  0.0000  0.0000  0.0000  0.0000 </r>
       </set>
       <set comment="band 2">
        <r>  0.0000  0.0000  0.0000  0.0000  0.0000  0.0000  0.0000  0.0000  0.0000 </r>
        <r>  0.2562  0.0713  0.0000  0.0372  0.0000  0.0000  0.0000  0.0000  0.0000 </r>
        <r>  0.0000  0.0000  0.0000  0.0000  0.0000  0.0000  0.0000  0.0000  0.0000 </r>
        <r>  0.2542  0.0717  0.0000  0.0377  0.0000  0.0000  0.0000  0.0000  0.0000 </r>
       </set>
       <set comment="band 3">
        <r>  0.2152  0.0365  0.0000  0.1158  0.0000  0.0000  0.0000  0.0000  0.0000 </r>
        <r>  0.0000  0.0000  0.0000  0.0000  0.0000  0.0000  0.0000  0.0000  0.0000 </r>
        <r>  0.2169  0.0360  0.0000  0.1152  0.0000  0.0000  0.0000  0.0000  0.0000 </r>
        <r>  0.0000  0.0000  0.0000  0.0000  0.0000  0.0000  0.0000  0.0000  0.0000 </r>
       </set>
       <set comment="band 4">
        <r>  0.0000  0.0000  0.0000  0.0000  0.0000  0.0000  0.0000  0.0000  0.0000 </r>
        <r>  0.2152  0.0365  0.0000  0.1158  0.0000  0.0000  0.0000  0.0000  0.0000 </r>
        <r>  0.0000  0.0000  0.0000  0.0000  0.0000  0.0000  0.0000  0.0000  0.0000 </r>
        <r>  0.2169  0.0360  0.0000  0.1152  0.0000  0.0000  0.0000  0.0000  0.0000 </r>
       </set>
       <set comment="band 5">
        <r>  0.0257  0.1786  0.0000  0.1299  0.0000  0.0000  0.0000  0.0000  0.0000 </r>
        <r>  0.0000  0.0000  0.0000  0.0000  0.0000  0.0000  0.0000  0.0000  0.0000 </r>
        <r>  0.0258  0.1785  0.0000  0.1298  0.0000  0.0000  0.0000  0.0000  0.0000 </r>
        <r>  0.0000  0.0000  0.0000  0.0000  0.0000  0.0000  0.0000  0.0000  0.0000 </r>
       </set>
       <set comment="band 6">
        <r>  0.0000  0.0000  0.0000  0.0000  0.0000  0.0000  0.0000  0.0000  0.0000 </r>
        <r>  0.0257  0.1786  0.0000  0.1299  0.0000  0.0000  0.0000  0.0000  0.0000 </r>
        <r>  0.0000  0.0000  0.0000  0.0000  0.0000  0.0000  0.0000  0.0000  0.0000 </r>
        <r>  0.0258  0.1785  0.0000  0.1298  0.0000  0.0000  0.0000  0.0000  0.0000 </r>
       </set>
       <set comment="band 7">
        <r>  0.0000  0.0000  0.2597  0.0000  0.0000  0.0000  0.0000  0.0000  0.0000 </r>
        <r>  0.0002  0.0001  0.0000  0.0000  0.0000  0.0000  0.0000  0.0000  0.0000 </r>
        <r>  0.0000  0.0000  0.2543  0.0000  0.0000  0.0000  0.0000  0.0000  0.0000 </r>
        <r>  0.0000  0.0002  0.0000  0.0001  0.0000  0.0000  0.0000  0.0000  0.0000 </r>
       </set>
       <set comment="band 8">
        <r>  0.0002  0.0001  0.0000  0.0000  0.0000  0.0000  0.0000  0.0000  0.0000 </r>
        <r>  0.0000  0.0000  0.2597  0.0000  0.0000  0.0000  0.0000  0.0000  0.0000 </r>
        <r>  0.0000  0.0002  0.0000  0.0001  0.0000  0.0000  0.0000  0.0000  0.0000 </r>
        <r>  0.0000  0.0000  0.2543  0.0000  0.0000  0.0000  0.0000  0.0000  0.0000 </r>
       </set>
       <set comment="band 9">
        <r>  0.0000  0.0000  0.2604  0.0000  0.0000  0.0000  0.0000  0.0000  0.0000 </r>
        <r>  0.0001  0.0000  0.0000  0.0001  0.0000  0.0000  0.0000  0.0000  0.0000 </r>
        <r>  0.0000  0.0000  0.2660  0.0000  0.0000  0.0000  0.0000  0.0000  0.0000 </r>
        <r>  0.0000  0.0001  0.0000  0.0002  0.0000  0.0000  0.0000  0.0000  0.0000 </r>
       </set>
       <set comment="band 10">
        <r>  0.0001  0.0000  0.0000  0.0001  0.0000  0.0000  0.0000  0.0000  0.0000 </r>
        <r>  0.0000  0.0000  0.2604  0.0000  0.0000  0.0000  0.0000  0.0000  0.0000 </r>
        <r>  0.0000  0.0001  0.0000  0.0002  0.0000  0.0000  0.0000  0.0000  0.0000 </r>
        <r>  0.0000  0.0000  0.2660  0.0000  0.0000  0.0000  0.0000  0.0000  0.0000 </r>
       </set>
       <set comment="band 11">
        <r>  0.0000  0.0000  0.0075  0.0000  0.0000  0.0000  0.0000  0.0000  0.0000 </r>
        <r>  0.0008  0.0183  0.0000  0.0177  0.0000  0.0000  0.0000  0.0000  0.0000 </r>
        <r>  0.0000  0.0000  0.0072  0.0000  0.0000  0.0000  0.0000  0.0000  0.0000 </r>
        <r>  0.0000  0.0001  0.0000  0.0002  0.0000  0.0000  0.0000  0.0000  0.0000 </r>
       </set>
       <set comment="band 12">
        <r>  0.0008  0.0183  0.0000  0.0177  0.0000  0.0000  0.0000  0.0000  0.0000 </r>
        <r>  0.0000  0.0000  0.0075  0.0000  0.0000  0.0000  0.0000  0.0000  0.0000 </r>
        <r>  0.0000  0.0001  0.0000  0.0002  0.0000  0.0000  0.0000  0.0000  0.0000 </r>
        <r>  0.0000  0.0000  0.0072  0.0000  0.0000  0.0000  0.0000  0.0000  0.0000 </r>
       </set>
       <set comment="band 13">
        <r>  0.0000  0.0000  0.0135  0.0000  0.0000  0.0000  0.0000  0.0000  0.0000 </r>
        <r>  0.0614  0.0462  0.0000  0.0326  0.0000  0.0000  0.0000  0.0000  0.0000 </r>
        <r>  0.0000  0.0000  0.0011  0.0000  0.0000  0.0000  0.0000  0.0000  0.0000 </r>
        <r>  0.0451  0.1639  0.0000  0.1159  0.0000  0.0000  0.0000  0.0000  0.0000 </r>
       </set>
       <set comment="band 14">
        <r>  0.0614  0.0462  0.0000  0.0326  0.0000  0.0000  0.0000  0.0000  0.0000 </r>
        <r>  0.0000  0.0000  0.0135  0.0000  0.0000  0.0000  0.0000  0.0000  0.0000 </r>
        <r>  0.0451  0.1639  0.0000  0.1159  0.0000  0.0000  0.0000  0.0000  0.0000 </r>
        <r>  0.0000  0.0000  0.0011  0.0000  0.0000  0.0000  0.0000  0.0000  0.0000 </r>
       </set>
       <set comment="band 15">
        <r>  0.0042  0.0702  0.0000  0.0401  0.0000  0.0000  0.0000  0.0000  0.0000 </r>
        <r>  0.0000  0.0000  0.0117  0.0000  0.0000  0.0000  0.0000  0.0000  0.0000 </r>
        <r>  0.0254  0.0053  0.0000  0.0716  0.0000  0.0000  0.0000  0.0000  0.0000 </r>
        <r>  0.0000  0.0000  0.0234  0.0000  0.0000  0.0000  0.0000  0.0000  0.0000 </r>
       </set>
       <set comment="band 16">
        <r>  0.0000  0.0000  0.0117  0.0000  0.0000  0.0000  0.0000  0.0000  0.0000 </r>
        <r>  0.0042  0.0702  0.0000  0.0401  0.0000  0.0000  0.0000  0.0000  0.0000 </r>
        <r>  0.0000  0.0000  0.0234  0.0000  0.0000  0.0000  0.0000  0.0000  0.0000 </r>
        <r>  0.0254  0.0053  0.0000  0.0716  0.0000  0.0000  0.0000  0.0000  0.0000 </r>
       </set>
      </set>
      <set comment="kpoint 111">
       <set comment="band 1">
        <r>  0.5006  0.0000  0.0000  0.0000  0.0000  0.0000  0.0000  0.0000  0.0000 </r>
        <r>  0.0000  0.0000  0.0000  0.0000  0.0000  0.0000  0.0000  0.0000  0.0000 </r>
        <r>  0.0000  0.1215  0.0000  0.1215  0.0000  0.0000  0.0000  0.0000  0.0000 </r>
        <r>  0.0000  0.0000  0.0000  0.0000  0.0000  0.0000  0.0000  0.0000  0.0000 </r>
       </set>
       <set comment="band 2">
        <r>  0.0000  0.0000  0.0000  0.0000  0.0000  0.0000  0.0000  0.0000  0.0000 </r>
        <r>  0.5006  0.0000  0.0000  0.0000  0.0000  0.0000  0.0000  0.0000  0.0000 </r>
        <r>  0.0000  0.0000  0.0000  0.0000  0.0000  0.0000  0.0000  0.0000  0.0000 </r>
        <r>  0.0000  0.1215  0.0000  0.1215  0.0000  0.0000  0.0000  0.0000  0.0000 </r>
       </set>
       <set comment="band 3">
        <r>  0.0000  0.0000  0.0000  0.0000  0.0000  0.0000  0.0000  0.0000  0.0000 </r>
        <r>  0.0000  0.1216  0.0000  0.1216  0.0000  0.0000  0.0000  0.0000  0.0000 </r>
        <r>  0.0000  0.0000  0.0000  0.0000  0.0000  0.0000  0.0000  0.0000  0.0000 </r>
        <r>  0.5004  0.0000  0.0000  0.0000  0.0000  0.0000  0.0000  0.0000  0.0000 </r>
       </set>
       <set comment="band 4">
        <r>  0.0000  0.1216  0.0000  0.1216  0.0000  0.0000  0.0000  0.0000  0.0000 </r>
        <r>  0.0000  0.0000  0.0000  0.0000  0.0000  0.0000  0.0000  0.0000  0.0000 </r>
        <r>  0.5004  0.0000  0.0000  0.0000  0.0000  0.0000  0.0000  0.0000  0.0000 </r>
        <r>  0.0000  0.0000  0.0000  0.0000  0.0000  0.0000  0.0000  0.0000  0.0000 </r>
       </set>
       <set comment="band 5">
        <r>  0.0000  0.1608  0.0000  0.1608  0.0000  0.0000  0.0000  0.0000  0.0000 </r>
        <r>  0.0000  0.0000  0.0000  0.0000  0.0000  0.0000  0.0000  0.0000  0.0000 </r>
        <r>  0.0000  0.1607  0.0000  0.1607  0.0000  0.0000  0.0000  0.0000  0.0000 </r>
        <r>  0.0000  0.0000  0.0000  0.0000  0.0000  0.0000  0.0000  0.0000  0.0000 </r>
       </set>
       <set comment="band 6">
        <r>  0.0000  0.0000  0.0000  0.0000  0.0000  0.0000  0.0000  0.0000  0.0000 </r>
        <r>  0.0000  0.1608  0.0000  0.1608  0.0000  0.0000  0.0000  0.0000  0.0000 </r>
        <r>  0.0000  0.0000  0.0000  0.0000  0.0000  0.0000  0.0000  0.0000  0.0000 </r>
        <r>  0.0000  0.1607  0.0000  0.1607  0.0000  0.0000  0.0000  0.0000  0.0000 </r>
       </set>
       <set comment="band 7">
        <r>  0.0000  0.0000  0.5232  0.0000  0.0000  0.0000  0.0000  0.0000  0.0000 </r>
        <r>  0.0002  0.0000  0.0000  0.0000  0.0000  0.0000  0.0000  0.0000  0.0000 </r>
        <r>  0.0000  0.0000  0.0000  0.0000  0.0000  0.0000  0.0000  0.0000  0.0000 </r>
        <r>  0.0000  0.0002  0.0000  0.0002  0.0000  0.0000  0.0000  0.0000  0.0000 </r>
       </set>
       <set comment="band 8">
        <r>  0.0002  0.0000  0.0000  0.0000  0.0000  0.0000  0.0000  0.0000  0.0000 </r>
        <r>  0.0000  0.0000  0.5232  0.0000  0.0000  0.0000  0.0000  0.0000  0.0000 </r>
        <r>  0.0000  0.0002  0.0000  0.0002  0.0000  0.0000  0.0000  0.0000  0.0000 </r>
        <r>  0.0000  0.0000  0.0000  0.0000  0.0000  0.0000  0.0000  0.0000  0.0000 </r>
       </set>
       <set comment="band 9">
        <r>  0.0000  0.0001  0.0000  0.0001  0.0000  0.0000  0.0000  0.0000  0.0000 </r>
        <r>  0.0000  0.0000  0.0000  0.0000  0.0000  0.0000  0.0000  0.0000  0.0000 </r>
        <r>  0.0000  0.0001  0.0000  0.0001  0.0000  0.0000  0.0000  0.0000  0.0000 </r>
        <r>  0.0000  0.0000  0.5234  0.0000  0.0000  0.0000  0.0000  0.0000  0.0000 </r>
       </set>
       <set comment="band 10">
        <r>  0.0000  0.0000  0.0000  0.0000  0.0000  0.0000  0.0000  0.0000  0.0000 </r>
        <r>  0.0000  0.0001  0.0000  0.0001  0.0000  0.0000  0.0000  0.0000  0.0000 </r>
        <r>  0.0000  0.0000  0.5234  0.0000  0.0000  0.0000  0.0000  0.0000  0.0000 </r>
        <r>  0.0000  0.0001  0.0000  0.0001  0.0000  0.0000  0.0000  0.0000  0.0000 </r>
       </set>
       <set comment="band 11">
        <r>  0.0000  0.0000  0.0000  0.0000  0.0000  0.0000  0.0000  0.0000  0.0000 </r>
        <r>  0.0000  0.0157  0.0000  0.0157  0.0000  0.0000  0.0000  0.0000  0.0000 </r>
        <r>  0.0000  0.0000  0.0000  0.0000  0.0000  0.0000  0.0000  0.0000  0.0000 </r>
        <r>  0.0000  0.0000  0.0000  0.0000  0.0000  0.0000  0.0000  0.0000  0.0000 </r>
       </set>
       <set comment="band 12">
        <r>  0.0000  0.0157  0.0000  0.0157  0.0000  0.0000  0.0000  0.0000  0.0000 </r>
        <r>  0.0000  0.0000  0.0000  0.0000  0.0000  0.0000  0.0000  0.0000  0.0000 </r>
        <r>  0.0000  0.0000  0.0000  0.0000  0.0000  0.0000  0.0000  0.0000  0.0000 </r>
        <r>  0.0000  0.0000  0.0000  0.0000  0.0000  0.0000  0.0000  0.0000  0.0000 </r>
       </set>
       <set comment="band 13">
        <r>  0.0000  0.0000  0.0252  0.0000  0.0000  0.0000  0.0000  0.0000  0.0000 </r>
        <r>  0.0435  0.0000  0.0000  0.0000  0.0000  0.0000  0.0000  0.0000  0.0000 </r>
        <r>  0.0000  0.0000  0.0000  0.0000  0.0000  0.0000  0.0000  0.0000  0.0000 </r>
        <r>  0.0000  0.1724  0.0000  0.1724  0.0000  0.0000  0.0000  0.0000  0.0000 </r>
       </set>
       <set comment="band 14">
        <r>  0.0435  0.0000  0.0000  0.0000  0.0000  0.0000  0.0000  0.0000  0.0000 </r>
        <r>  0.0000  0.0000  0.0252  0.0000  0.0000  0.0000  0.0000  0.0000  0.0000 </r>
        <r>  0.0000  0.1724  0.0000  0.1724  0.0000  0.0000  0.0000  0.0000  0.0000 </r>
        <r>  0.0000  0.0000  0.0000  0.0000  0.0000  0.0000  0.0000  0.0000  0.0000 </r>
       </set>
       <set comment="band 15">
        <r>  0.0000  0.0358  0.0000  0.0358  0.0000  0.0000  0.0000  0.0000  0.0000 </r>
        <r>  0.0000  0.0000  0.0000  0.0000  0.0000  0.0000  0.0000  0.0000  0.0000 </r>
        <r>  0.0000  0.0357  0.0000  0.0357  0.0000  0.0000  0.0000  0.0000  0.0000 </r>
        <r>  0.0000  0.0000  0.0400  0.0000  0.0000  0.0000  0.0000  0.0000  0.0000 </r>
       </set>
       <set comment="band 16">
        <r>  0.0000  0.0000  0.0000  0.0000  0.0000  0.0000  0.0000  0.0000  0.0000 </r>
        <r>  0.0000  0.0358  0.0000  0.0358  0.0000  0.0000  0.0000  0.0000  0.0000 </r>
        <r>  0.0000  0.0000  0.0400  0.0000  0.0000  0.0000  0.0000  0.0000  0.0000 </r>
        <r>  0.0000  0.0357  0.0000  0.0357  0.0000  0.0000  0.0000  0.0000  0.0000 </r>
       </set>
      </set>
     </set>
    </set>
   </array>
  </projected>
 </calculation>
 <structure name="finalpos" >
  <crystal>
   <varray name="basis" >
    <v>       2.46488332       0.00000000       0.00000000 </v>
    <v>      -1.23244216       2.13465189      -0.00000000 </v>
    <v>      -0.00000000      -0.00000000       7.36348145 </v>
   </varray>
   <i name="volume">     38.74419351 </i>
   <varray name="rec_basis" >
    <v>       0.40569872       0.23423032       0.00000000 </v>
    <v>      -0.00000000       0.46846046       0.00000000 </v>
    <v>      -0.00000000       0.00000000       0.13580533 </v>
   </varray>
  </crystal>
  <varray name="positions" >
   <v>       0.00000000      -0.00000000       0.25000000 </v>
   <v>      -0.00000000       0.00000000       0.75000000 </v>
   <v>       0.33333300       0.66666700       0.25000000 </v>
   <v>       0.66666700       0.33333300       0.75000000 </v>
  </varray>
 </structure>
</modeling>
