unknown system                          
            1
     2.467291    0.000000    0.000000
    -1.233646    2.136737    0.000000
     0.000000    0.000000    7.803073
   C 
   4
Direct configuration=     1
   0.00000000  0.00000000  0.25000000
   0.00000000  0.00000000  0.75000000
   0.33333300  0.66666700  0.25000000
   0.66666700  0.33333300  0.75000000
unknown system                          
            1
     2.466970    0.000000    0.000000
    -1.233486    2.136459   -0.000000
     0.000000    0.000000    7.801816
   C 
   4
Direct configuration=     2
  -0.00000000  0.00000000  0.25000000
   0.00000000 -0.00000000  0.75000000
   0.33333300  0.66666700  0.25000000
   0.66666700  0.33333300  0.75000000
unknown system                          
            1
     2.466008    0.000000    0.000000
    -1.233005    2.135626   -0.000000
     0.000000    0.000000    7.798045
   C 
   4
Direct configuration=     3
  -0.00000000  0.00000000  0.25000000
   0.00000000 -0.00000000  0.75000000
   0.33333300  0.66666700  0.25000000
   0.66666700  0.33333300  0.75000000
unknown system                          
            1
     2.464084    0.000000    0.000000
    -1.232042    2.133959   -0.000000
     0.000000    0.000000    7.790502
   C 
   4
Direct configuration=     4
  -0.00000000  0.00000000  0.25000000
   0.00000000 -0.00000000  0.75000000
   0.33333300  0.66666700  0.25000000
   0.66666700  0.33333300  0.75000000
unknown system                          
            1
     2.460235    0.000000    0.000000
    -1.230118    2.130626   -0.000000
     0.000000    0.000000    7.775416
   C 
   4
Direct configuration=     5
  -0.00000000  0.00000000  0.25000000
   0.00000000 -0.00000000  0.75000000
   0.33333300  0.66666700  0.25000000
   0.66666700  0.33333300  0.75000000
unknown system                          
            1
     2.461894    0.000000    0.000000
    -1.230948    2.132063   -0.000000
     0.000000   -0.000000    7.770819
   C 
   4
Direct configuration=     6
  -0.00000000  0.00000000  0.25000000
   0.00000000 -0.00000000  0.75000000
   0.33333300  0.66666700  0.25000000
   0.66666700  0.33333300  0.75000000
unknown system                          
            1
     2.465605    0.000000    0.000000
    -1.232803    2.135277   -0.000000
     0.000000   -0.000000    7.760539
   C 
   4
Direct configuration=     7
  -0.00000000 -0.00000000  0.25000000
   0.00000000  0.00000000  0.75000000
   0.33333300  0.66666700  0.25000000
   0.66666700  0.33333300  0.75000000
unknown system                          
            1
     2.465565    0.000000    0.000000
    -1.232783    2.135242   -0.000000
     0.000000   -0.000000    7.751889
   C 
   4
Direct configuration=     8
  -0.00000000 -0.00000000  0.25000000
   0.00000000  0.00000000  0.75000000
   0.33333300  0.66666700  0.25000000
   0.66666700  0.33333300  0.75000000
unknown system                          
            1
     2.465445    0.000000    0.000000
    -1.232723    2.135139   -0.000000
    -0.000000   -0.000000    7.725939
   C 
   4
Direct configuration=     9
  -0.00000000 -0.00000000  0.25000000
  -0.00000000  0.00000000  0.75000000
   0.33333300  0.66666700  0.25000000
   0.66666700  0.33333300  0.75000000
unknown system                          
            1
     2.465206    0.000000    0.000000
    -1.232603    2.134931   -0.000000
    -0.000000   -0.000000    7.674039
   C 
   4
Direct configuration=    10
  -0.00000000 -0.00000000  0.25000000
  -0.00000000  0.00000000  0.75000000
   0.33333300  0.66666700  0.25000000
   0.66666700  0.33333300  0.75000000
unknown system                          
            1
     2.464727    0.000000    0.000000
    -1.232364    2.134517   -0.000000
    -0.000000   -0.000000    7.570238
   C 
   4
Direct configuration=    11
   0.00000000 -0.00000000  0.25000000
  -0.00000000  0.00000000  0.75000000
   0.33333300  0.66666700  0.25000000
   0.66666700  0.33333300  0.75000000
unknown system                          
            1
     2.463769    0.000000    0.000000
    -1.231885    2.133687   -0.000000
    -0.000000   -0.000000    7.362637
   C 
   4
Direct configuration=    12
   0.00000000 -0.00000000  0.25000000
  -0.00000000  0.00000000  0.75000000
   0.33333300  0.66666700  0.25000000
   0.66666700  0.33333300  0.75000000
unknown system                          
            1
     2.470295   -0.000000    0.000000
    -1.235148    2.139338   -0.000000
    -0.000000   -0.000000    7.367583
   C 
   4
Direct configuration=    13
   0.00000000 -0.00000000  0.25000000
  -0.00000000  0.00000000  0.75000000
   0.33333300  0.66666700  0.25000000
   0.66666700  0.33333300  0.75000000
unknown system                          
            1
     2.464883    0.000000    0.000000
    -1.232442    2.134652   -0.000000
    -0.000000   -0.000000    7.363481
   C 
   4
Direct configuration=    14
   0.00000000 -0.00000000  0.25000000
  -0.00000000  0.00000000  0.75000000
   0.33333300  0.66666700  0.25000000
   0.66666700  0.33333300  0.75000000
