   8   8   1   0
  0.5414167E+01  0.3511887E-09  0.3511887E-09  0.3511887E-09  0.1500000E-16
   1.0000000000000000E-004
  CAR 
 unknown system                          
     28.77588005    -13.64453357  301      9.97833426      1.00000000
    -13.645  0.0000E+00  0.0000E+00  0.0000E+00  0.0000E+00
    -13.503  0.0000E+00  0.0000E+00  0.0000E+00  0.0000E+00
    -13.362  0.0000E+00  0.0000E+00  0.0000E+00  0.0000E+00
    -13.220  0.0000E+00  0.0000E+00  0.0000E+00  0.0000E+00
    -13.079  0.0000E+00  0.0000E+00  0.0000E+00  0.0000E+00
    -12.938  0.0000E+00  0.0000E+00  0.0000E+00  0.0000E+00
    -12.796  0.0000E+00  0.0000E+00  0.0000E+00  0.0000E+00
    -12.655  0.0000E+00  0.0000E+00  0.0000E+00  0.0000E+00
    -12.513  0.0000E+00  0.0000E+00  0.0000E+00  0.0000E+00
    -12.372  0.0000E+00  0.0000E+00  0.0000E+00  0.0000E+00
    -12.231  0.0000E+00  0.0000E+00  0.0000E+00  0.0000E+00
    -12.089  0.0000E+00  0.0000E+00  0.0000E+00  0.0000E+00
    -11.948  0.0000E+00  0.0000E+00  0.0000E+00  0.0000E+00
    -11.806  0.0000E+00  0.0000E+00  0.0000E+00  0.0000E+00
    -11.665  0.6797E-04  0.6799E-04  0.1165E-05  0.1165E-05
    -11.524  0.8387E-03  0.8387E-03  0.5958E-04  0.5959E-04
    -11.382  0.1100E-02  0.1100E-02  0.2049E-03  0.2049E-03
    -11.241  0.1370E-02  0.1370E-02  0.3762E-03  0.3762E-03
    -11.099  0.1741E-02  0.1741E-02  0.5966E-03  0.5967E-03
    -10.958  0.1864E-02  0.1864E-02  0.8548E-03  0.8549E-03
    -10.817  0.2007E-02  0.2007E-02  0.1127E-02  0.1127E-02
    -10.675  0.2194E-02  0.2194E-02  0.1424E-02  0.1424E-02
    -10.534  0.2376E-02  0.2376E-02  0.1747E-02  0.1747E-02
    -10.392  0.2586E-02  0.2586E-02  0.2097E-02  0.2097E-02
    -10.251  0.2704E-02  0.2704E-02  0.2473E-02  0.2473E-02
    -10.109  0.2811E-02  0.2811E-02  0.2862E-02  0.2862E-02
     -9.968  0.2935E-02  0.2935E-02  0.3269E-02  0.3269E-02
     -9.827  0.3050E-02  0.3050E-02  0.3692E-02  0.3692E-02
     -9.685  0.3189E-02  0.3189E-02  0.4133E-02  0.4133E-02
     -9.544  0.3342E-02  0.3342E-02  0.4594E-02  0.4594E-02
     -9.402  0.3500E-02  0.3500E-02  0.5078E-02  0.5078E-02
     -9.261  0.3600E-02  0.3600E-02  0.5581E-02  0.5581E-02
     -9.120  0.3687E-02  0.3687E-02  0.6096E-02  0.6096E-02
     -8.978  0.3790E-02  0.3790E-02  0.6624E-02  0.6625E-02
     -8.837  0.3892E-02  0.3892E-02  0.7168E-02  0.7168E-02
     -8.695  0.4005E-02  0.4005E-02  0.7726E-02  0.7726E-02
     -8.554  0.4127E-02  0.4127E-02  0.8301E-02  0.8301E-02
     -8.413  0.4252E-02  0.4252E-02  0.8893E-02  0.8893E-02
     -8.271  0.4377E-02  0.4377E-02  0.9503E-02  0.9503E-02
     -8.130  0.4644E-02  0.4644E-02  0.1013E-01  0.1013E-01
     -7.988  0.5005E-02  0.5005E-02  0.1082E-01  0.1082E-01
     -7.847  0.5111E-02  0.5111E-02  0.1154E-01  0.1154E-01
     -7.706  0.5181E-02  0.5181E-02  0.1227E-01  0.1227E-01
     -7.564  0.5361E-02  0.5361E-02  0.1300E-01  0.1301E-01
     -7.423  0.5566E-02  0.5566E-02  0.1379E-01  0.1379E-01
     -7.281  0.5462E-02  0.5462E-02  0.1457E-01  0.1457E-01
     -7.140  0.5303E-02  0.5303E-02  0.1533E-01  0.1533E-01
     -6.999  0.5131E-02  0.5131E-02  0.1607E-01  0.1607E-01
     -6.857  0.4960E-02  0.4960E-02  0.1678E-01  0.1678E-01
     -6.716  0.5004E-02  0.5004E-02  0.1748E-01  0.1748E-01
     -6.574  0.5155E-02  0.5155E-02  0.1820E-01  0.1820E-01
     -6.433  0.5831E-02  0.5831E-02  0.1896E-01  0.1896E-01
     -6.292  0.6458E-02  0.6458E-02  0.1984E-01  0.1984E-01
     -6.150  0.6997E-02  0.6997E-02  0.2078E-01  0.2078E-01
     -6.009  0.7512E-02  0.7512E-02  0.2182E-01  0.2182E-01
     -5.867  0.7902E-02  0.7902E-02  0.2291E-01  0.2291E-01
     -5.726  0.8400E-02  0.8400E-02  0.2406E-01  0.2406E-01
     -5.585  0.7534E-02  0.7534E-02  0.2517E-01  0.2517E-01
     -5.443  0.7471E-02  0.7471E-02  0.2624E-01  0.2624E-01
     -5.302  0.7161E-02  0.7161E-02  0.2727E-01  0.2727E-01
     -5.160  0.7961E-02  0.7960E-02  0.2829E-01  0.2829E-01
     -5.019  0.6238E-02  0.6238E-02  0.2920E-01  0.2920E-01
     -4.878  0.6067E-02  0.6067E-02  0.3005E-01  0.3005E-01
     -4.736  0.5985E-02  0.5985E-02  0.3092E-01  0.3092E-01
     -4.595  0.6111E-02  0.6111E-02  0.3177E-01  0.3177E-01
     -4.453  0.6437E-02  0.6437E-02  0.3266E-01  0.3266E-01
     -4.312  0.5779E-02  0.5779E-02  0.3351E-01  0.3351E-01
     -4.171  0.6375E-02  0.6375E-02  0.3436E-01  0.3436E-01
     -4.029  0.5453E-02  0.5453E-02  0.3521E-01  0.3521E-01
     -3.888  0.4855E-02  0.4855E-02  0.3593E-01  0.3593E-01
     -3.746  0.4365E-02  0.4365E-02  0.3658E-01  0.3658E-01
     -3.605  0.3956E-02  0.3956E-02  0.3717E-01  0.3717E-01
     -3.464  0.3678E-02  0.3678E-02  0.3771E-01  0.3771E-01
     -3.322  0.3704E-02  0.3704E-02  0.3822E-01  0.3822E-01
     -3.181  0.4583E-02  0.4583E-02  0.3882E-01  0.3882E-01
     -3.039  0.4331E-02  0.4331E-02  0.3947E-01  0.3947E-01
     -2.898  0.5059E-02  0.5059E-02  0.4008E-01  0.4008E-01
     -2.757  0.5344E-02  0.5344E-02  0.4090E-01  0.4090E-01
     -2.615  0.4912E-02  0.4912E-02  0.4161E-01  0.4161E-01
     -2.474  0.4769E-02  0.4769E-02  0.4229E-01  0.4229E-01
     -2.332  0.5244E-02  0.5244E-02  0.4299E-01  0.4299E-01
     -2.191  0.6076E-02  0.6076E-02  0.4379E-01  0.4379E-01
     -2.050  0.7385E-02  0.7385E-02  0.4473E-01  0.4473E-01
     -1.908  0.1014E-01  0.1014E-01  0.4598E-01  0.4598E-01
     -1.767  0.1196E-01  0.1196E-01  0.4755E-01  0.4755E-01
     -1.625  0.1305E-01  0.1305E-01  0.4934E-01  0.4934E-01
     -1.484  0.1214E-01  0.1214E-01  0.5112E-01  0.5112E-01
     -1.343  0.1061E-01  0.1061E-01  0.5274E-01  0.5274E-01
     -1.201  0.9394E-02  0.9394E-02  0.5415E-01  0.5415E-01
     -1.060  0.8567E-02  0.8566E-02  0.5541E-01  0.5541E-01
     -0.918  0.9163E-02  0.9163E-02  0.5661E-01  0.5661E-01
     -0.777  0.7160E-02  0.7160E-02  0.5801E-01  0.5801E-01
     -0.636  0.6805E-02  0.6805E-02  0.5899E-01  0.5899E-01
     -0.494  0.6516E-02  0.6516E-02  0.5993E-01  0.5993E-01
     -0.353  0.6234E-02  0.6234E-02  0.6083E-01  0.6083E-01
     -0.211  0.5958E-02  0.5958E-02  0.6170E-01  0.6170E-01
     -0.070  0.5690E-02  0.5690E-02  0.6252E-01  0.6252E-01
      0.071  0.5427E-02  0.5427E-02  0.6331E-01  0.6331E-01
      0.213  0.5120E-02  0.5120E-02  0.6405E-01  0.6405E-01
      0.354  0.5062E-02  0.5062E-02  0.6477E-01  0.6477E-01
      0.496  0.5628E-02  0.5628E-02  0.6552E-01  0.6552E-01
      0.637  0.6475E-02  0.6476E-02  0.6637E-01  0.6637E-01
      0.778  0.7777E-02  0.7777E-02  0.6736E-01  0.6736E-01
      0.920  0.9562E-02  0.9562E-02  0.6860E-01  0.6860E-01
      1.061  0.1058E-01  0.1058E-01  0.7002E-01  0.7002E-01
      1.203  0.1123E-01  0.1123E-01  0.7158E-01  0.7158E-01
      1.344  0.1214E-01  0.1214E-01  0.7320E-01  0.7320E-01
      1.485  0.1520E-01  0.1520E-01  0.7516E-01  0.7516E-01
      1.627  0.1167E-01  0.1167E-01  0.7714E-01  0.7714E-01
      1.768  0.6442E-02  0.6442E-02  0.7838E-01  0.7838E-01
      1.910  0.4163E-02  0.4163E-02  0.7912E-01  0.7912E-01
      2.051  0.3381E-02  0.3381E-02  0.7963E-01  0.7963E-01
      2.192  0.7329E-02  0.7329E-02  0.8027E-01  0.8027E-01
      2.334  0.1177E-01  0.1177E-01  0.8166E-01  0.8166E-01
      2.475  0.1395E-01  0.1395E-01  0.8348E-01  0.8348E-01
      2.617  0.1303E-01  0.1303E-01  0.8547E-01  0.8547E-01
      2.758  0.1210E-01  0.1210E-01  0.8724E-01  0.8724E-01
      2.899  0.1423E-01  0.1423E-01  0.8900E-01  0.8900E-01
      3.041  0.1546E-01  0.1546E-01  0.9113E-01  0.9113E-01
      3.182  0.1455E-01  0.1455E-01  0.9327E-01  0.9327E-01
      3.324  0.1418E-01  0.1418E-01  0.9537E-01  0.9537E-01
      3.465  0.9420E-02  0.9419E-02  0.9716E-01  0.9716E-01
      3.606  0.1134E-01  0.1134E-01  0.9857E-01  0.9857E-01
      3.748  0.1476E-01  0.1476E-01  0.1004E+00  0.1004E+00
      3.889  0.1569E-01  0.1569E-01  0.1027E+00  0.1027E+00
      4.031  0.1600E-01  0.1600E-01  0.1049E+00  0.1049E+00
      4.172  0.1575E-01  0.1575E-01  0.1072E+00  0.1072E+00
      4.313  0.1614E-01  0.1614E-01  0.1094E+00  0.1094E+00
      4.455  0.1962E-01  0.1962E-01  0.1122E+00  0.1122E+00
      4.596  0.1427E-01  0.1427E-01  0.1145E+00  0.1145E+00
      4.738  0.1343E-01  0.1343E-01  0.1165E+00  0.1165E+00
      4.879  0.1270E-01  0.1270E-01  0.1183E+00  0.1183E+00
      5.020  0.1265E-01  0.1265E-01  0.1202E+00  0.1202E+00
      5.162  0.1296E-01  0.1296E-01  0.1220E+00  0.1220E+00
      5.303  0.1422E-01  0.1422E-01  0.1239E+00  0.1239E+00
      5.445  0.1655E-01  0.1655E-01  0.1262E+00  0.1262E+00
      5.586  0.1532E-01  0.1532E-01  0.1284E+00  0.1284E+00
      5.727  0.1422E-01  0.1422E-01  0.1305E+00  0.1305E+00
      5.869  0.1314E-01  0.1314E-01  0.1325E+00  0.1325E+00
      6.010  0.1252E-01  0.1252E-01  0.1343E+00  0.1343E+00
      6.152  0.1207E-01  0.1207E-01  0.1360E+00  0.1360E+00
      6.293  0.1061E-01  0.1061E-01  0.1376E+00  0.1376E+00
      6.434  0.1185E-01  0.1185E-01  0.1392E+00  0.1392E+00
      6.576  0.1156E-01  0.1156E-01  0.1410E+00  0.1410E+00
      6.717  0.1182E-01  0.1182E-01  0.1426E+00  0.1426E+00
      6.859  0.1329E-01  0.1329E-01  0.1444E+00  0.1444E+00
      7.000  0.2187E-01  0.2187E-01  0.1468E+00  0.1468E+00
      7.141  0.1145E-01  0.1145E-01  0.1490E+00  0.1490E+00
      7.283  0.7941E-02  0.7941E-02  0.1502E+00  0.1502E+00
      7.424  0.7190E-02  0.7190E-02  0.1513E+00  0.1513E+00
      7.566  0.6600E-02  0.6600E-02  0.1523E+00  0.1523E+00
      7.707  0.6123E-02  0.6123E-02  0.1532E+00  0.1532E+00
      7.848  0.6027E-02  0.6027E-02  0.1541E+00  0.1541E+00
      7.990  0.5682E-02  0.5682E-02  0.1549E+00  0.1549E+00
      8.131  0.5264E-02  0.5264E-02  0.1557E+00  0.1557E+00
      8.273  0.4475E-02  0.4475E-02  0.1564E+00  0.1564E+00
      8.414  0.3813E-02  0.3813E-02  0.1569E+00  0.1569E+00
      8.555  0.3378E-02  0.3378E-02  0.1575E+00  0.1575E+00
      8.697  0.3023E-02  0.3023E-02  0.1579E+00  0.1579E+00
      8.838  0.3254E-02  0.3254E-02  0.1583E+00  0.1583E+00
      8.980  0.3278E-02  0.3278E-02  0.1588E+00  0.1588E+00
      9.121  0.2376E-02  0.2376E-02  0.1592E+00  0.1592E+00
      9.262  0.1591E-02  0.1591E-02  0.1595E+00  0.1595E+00
      9.404  0.1161E-02  0.1161E-02  0.1597E+00  0.1597E+00
      9.545  0.1141E-02  0.1141E-02  0.1598E+00  0.1598E+00
      9.687  0.2976E-03  0.2974E-03  0.1600E+00  0.1600E+00
      9.828  0.1369E-04  0.1368E-04  0.1600E+00  0.1600E+00
      9.969  0.0000E+00  0.0000E+00  0.1600E+00  0.1600E+00
     10.111  0.0000E+00  0.0000E+00  0.1600E+00  0.1600E+00
     10.252  0.0000E+00  0.0000E+00  0.1600E+00  0.1600E+00
     10.394  0.0000E+00  0.0000E+00  0.1600E+00  0.1600E+00
     10.535  0.0000E+00  0.0000E+00  0.1600E+00  0.1600E+00
     10.677  0.0000E+00  0.0000E+00  0.1600E+00  0.1600E+00
     10.818  0.0000E+00  0.0000E+00  0.1600E+00  0.1600E+00
     10.959  0.0000E+00  0.0000E+00  0.1600E+00  0.1600E+00
     11.101  0.0000E+00  0.0000E+00  0.1600E+00  0.1600E+00
     11.242  0.0000E+00  0.0000E+00  0.1600E+00  0.1600E+00
     11.384  0.0000E+00  0.0000E+00  0.1600E+00  0.1600E+00
     11.525  0.0000E+00  0.0000E+00  0.1600E+00  0.1600E+00
     11.666  0.0000E+00  0.0000E+00  0.1600E+00  0.1600E+00
     11.808  0.0000E+00  0.0000E+00  0.1600E+00  0.1600E+00
     11.949  0.0000E+00  0.0000E+00  0.1600E+00  0.1600E+00
     12.091  0.0000E+00  0.0000E+00  0.1600E+00  0.1600E+00
     12.232  0.0000E+00  0.0000E+00  0.1600E+00  0.1600E+00
     12.373  0.0000E+00  0.0000E+00  0.1600E+00  0.1600E+00
     12.515  0.0000E+00  0.0000E+00  0.1600E+00  0.1600E+00
     12.656  0.0000E+00  0.0000E+00  0.1600E+00  0.1600E+00
     12.798  0.0000E+00  0.0000E+00  0.1600E+00  0.1600E+00
     12.939  0.0000E+00  0.0000E+00  0.1600E+00  0.1600E+00
     13.080  0.0000E+00  0.0000E+00  0.1600E+00  0.1600E+00
     13.222  0.0000E+00  0.0000E+00  0.1600E+00  0.1600E+00
     13.363  0.0000E+00  0.0000E+00  0.1600E+00  0.1600E+00
     13.505  0.0000E+00  0.0000E+00  0.1600E+00  0.1600E+00
     13.646  0.0000E+00  0.0000E+00  0.1600E+00  0.1600E+00
     13.787  0.0000E+00  0.0000E+00  0.1600E+00  0.1600E+00
     13.929  0.0000E+00  0.0000E+00  0.1600E+00  0.1600E+00
     14.070  0.8345E-04  0.8347E-04  0.1600E+00  0.1600E+00
     14.212  0.5986E-03  0.5987E-03  0.1600E+00  0.1600E+00
     14.353  0.1360E-02  0.1360E-02  0.1602E+00  0.1602E+00
     14.494  0.2143E-02  0.2143E-02  0.1604E+00  0.1604E+00
     14.636  0.3341E-02  0.3341E-02  0.1608E+00  0.1608E+00
     14.777  0.5282E-02  0.5282E-02  0.1614E+00  0.1614E+00
     14.919  0.5524E-02  0.5524E-02  0.1622E+00  0.1622E+00
     15.060  0.5963E-02  0.5963E-02  0.1630E+00  0.1630E+00
     15.201  0.5979E-02  0.5979E-02  0.1638E+00  0.1638E+00
     15.343  0.6496E-02  0.6496E-02  0.1647E+00  0.1647E+00
     15.484  0.7243E-02  0.7243E-02  0.1657E+00  0.1657E+00
     15.626  0.7956E-02  0.7956E-02  0.1668E+00  0.1668E+00
     15.767  0.9416E-02  0.9416E-02  0.1680E+00  0.1680E+00
     15.908  0.9451E-02  0.9451E-02  0.1693E+00  0.1693E+00
     16.050  0.9650E-02  0.9650E-02  0.1707E+00  0.1707E+00
     16.191  0.1098E-01  0.1098E-01  0.1721E+00  0.1721E+00
     16.333  0.1209E-01  0.1209E-01  0.1738E+00  0.1738E+00
     16.474  0.1231E-01  0.1231E-01  0.1755E+00  0.1755E+00
     16.615  0.1165E-01  0.1165E-01  0.1772E+00  0.1772E+00
     16.757  0.1122E-01  0.1122E-01  0.1788E+00  0.1788E+00
     16.898  0.1128E-01  0.1128E-01  0.1804E+00  0.1804E+00
     17.040  0.1193E-01  0.1193E-01  0.1820E+00  0.1820E+00
     17.181  0.1265E-01  0.1265E-01  0.1838E+00  0.1838E+00
     17.322  0.1350E-01  0.1350E-01  0.1856E+00  0.1856E+00
     17.464  0.1524E-01  0.1524E-01  0.1876E+00  0.1876E+00
     17.605  0.1686E-01  0.1686E-01  0.1899E+00  0.1899E+00
     17.747  0.2282E-01  0.2282E-01  0.1926E+00  0.1926E+00
     17.888  0.2218E-01  0.2218E-01  0.1959E+00  0.1959E+00
     18.029  0.3046E-01  0.3046E-01  0.1994E+00  0.1994E+00
     18.171  0.2229E-01  0.2229E-01  0.2031E+00  0.2031E+00
     18.312  0.1730E-01  0.1730E-01  0.2059E+00  0.2059E+00
     18.454  0.1032E-01  0.1032E-01  0.2075E+00  0.2075E+00
     18.595  0.1529E-01  0.1529E-01  0.2092E+00  0.2092E+00
     18.736  0.2186E-01  0.2186E-01  0.2119E+00  0.2119E+00
     18.878  0.2051E-01  0.2051E-01  0.2150E+00  0.2150E+00
     19.019  0.1746E-01  0.1746E-01  0.2177E+00  0.2177E+00
     19.161  0.1703E-01  0.1703E-01  0.2202E+00  0.2202E+00
     19.302  0.1691E-01  0.1691E-01  0.2226E+00  0.2226E+00
     19.443  0.1705E-01  0.1705E-01  0.2250E+00  0.2250E+00
     19.585  0.1690E-01  0.1690E-01  0.2274E+00  0.2274E+00
     19.726  0.1820E-01  0.1820E-01  0.2298E+00  0.2298E+00
     19.868  0.1871E-01  0.1871E-01  0.2324E+00  0.2324E+00
     20.009  0.1919E-01  0.1919E-01  0.2351E+00  0.2351E+00
     20.150  0.1777E-01  0.1777E-01  0.2378E+00  0.2378E+00
     20.292  0.1587E-01  0.1587E-01  0.2401E+00  0.2401E+00
     20.433  0.1400E-01  0.1400E-01  0.2423E+00  0.2423E+00
     20.575  0.1178E-01  0.1178E-01  0.2441E+00  0.2441E+00
     20.716  0.9935E-02  0.9935E-02  0.2456E+00  0.2456E+00
     20.857  0.9744E-02  0.9744E-02  0.2470E+00  0.2470E+00
     20.999  0.9741E-02  0.9741E-02  0.2484E+00  0.2484E+00
     21.140  0.1165E-01  0.1165E-01  0.2499E+00  0.2499E+00
     21.282  0.1262E-01  0.1262E-01  0.2516E+00  0.2516E+00
     21.423  0.1314E-01  0.1314E-01  0.2535E+00  0.2535E+00
     21.564  0.1354E-01  0.1353E-01  0.2553E+00  0.2553E+00
     21.706  0.1136E-01  0.1136E-01  0.2570E+00  0.2570E+00
     21.847  0.1087E-01  0.1087E-01  0.2586E+00  0.2586E+00
     21.989  0.1098E-01  0.1098E-01  0.2601E+00  0.2601E+00
     22.130  0.1122E-01  0.1122E-01  0.2617E+00  0.2617E+00
     22.271  0.1393E-01  0.1393E-01  0.2636E+00  0.2636E+00
     22.413  0.1325E-01  0.1325E-01  0.2655E+00  0.2655E+00
     22.554  0.1208E-01  0.1208E-01  0.2673E+00  0.2673E+00
     22.696  0.1087E-01  0.1087E-01  0.2689E+00  0.2689E+00
     22.837  0.1005E-01  0.1005E-01  0.2704E+00  0.2704E+00
     22.978  0.8986E-02  0.8984E-02  0.2718E+00  0.2718E+00
     23.120  0.7311E-02  0.7313E-02  0.2730E+00  0.2730E+00
     23.261  0.6008E-02  0.6008E-02  0.2739E+00  0.2739E+00
     23.403  0.6472E-02  0.6473E-02  0.2747E+00  0.2747E+00
     23.544  0.7593E-02  0.7593E-02  0.2758E+00  0.2758E+00
     23.685  0.3884E-02  0.3884E-02  0.2766E+00  0.2766E+00
     23.827  0.2247E-02  0.2247E-02  0.2770E+00  0.2770E+00
     23.968  0.2096E-02  0.2096E-02  0.2773E+00  0.2773E+00
     24.110  0.1983E-02  0.1983E-02  0.2775E+00  0.2775E+00
     24.251  0.1835E-02  0.1835E-02  0.2778E+00  0.2778E+00
     24.392  0.1618E-02  0.1619E-02  0.2781E+00  0.2781E+00
     24.534  0.1422E-02  0.1422E-02  0.2783E+00  0.2783E+00
     24.675  0.1349E-02  0.1349E-02  0.2785E+00  0.2785E+00
     24.817  0.1270E-02  0.1270E-02  0.2787E+00  0.2787E+00
     24.958  0.1185E-02  0.1185E-02  0.2788E+00  0.2788E+00
     25.099  0.1094E-02  0.1094E-02  0.2790E+00  0.2790E+00
     25.241  0.1001E-02  0.1001E-02  0.2791E+00  0.2791E+00
     25.382  0.9128E-03  0.9129E-03  0.2793E+00  0.2793E+00
     25.524  0.8301E-03  0.8302E-03  0.2794E+00  0.2794E+00
     25.665  0.7534E-03  0.7534E-03  0.2795E+00  0.2795E+00
     25.806  0.8067E-03  0.8067E-03  0.2796E+00  0.2796E+00
     25.948  0.7379E-03  0.7379E-03  0.2797E+00  0.2797E+00
     26.089  0.6109E-03  0.6109E-03  0.2798E+00  0.2798E+00
     26.231  0.4662E-03  0.4662E-03  0.2799E+00  0.2799E+00
     26.372  0.3023E-03  0.3024E-03  0.2800E+00  0.2800E+00
     26.513  0.1493E-03  0.1493E-03  0.2800E+00  0.2800E+00
     26.655  0.4969E-04  0.4969E-04  0.2800E+00  0.2800E+00
     26.796  0.3533E-05  0.3531E-05  0.2800E+00  0.2800E+00
     26.938  0.0000E+00  0.0000E+00  0.2800E+00  0.2800E+00
     27.079  0.0000E+00  0.0000E+00  0.2800E+00  0.2800E+00
     27.220  0.0000E+00  0.0000E+00  0.2800E+00  0.2800E+00
     27.362  0.0000E+00  0.0000E+00  0.2800E+00  0.2800E+00
     27.503  0.0000E+00  0.0000E+00  0.2800E+00  0.2800E+00
     27.645  0.0000E+00  0.0000E+00  0.2800E+00  0.2800E+00
     27.786  0.0000E+00  0.0000E+00  0.2800E+00  0.2800E+00
     27.927  0.0000E+00  0.0000E+00  0.2800E+00  0.2800E+00
     28.069  0.0000E+00  0.0000E+00  0.2800E+00  0.2800E+00
     28.210  0.0000E+00  0.0000E+00  0.2800E+00  0.2800E+00
     28.352  0.0000E+00  0.0000E+00  0.2800E+00  0.2800E+00
     28.493  0.0000E+00  0.0000E+00  0.2800E+00  0.2800E+00
     28.634  0.0000E+00  0.0000E+00  0.2800E+00  0.2800E+00
     28.776  0.0000E+00  0.0000E+00  0.2800E+00  0.2800E+00
     28.77588005    -13.64453357  301      9.97833426      1.00000000
    -13.645  0.0000E+00  0.0000E+00  0.0000E+00  0.0000E+00  0.0000E+00  0.0000E+00  0.0000E+00  0.0000E+00  0.0000E+00  0.0000E+00  0.0000E+00  0.0000E+00  0.0000E+00  0.0000E+00  0.0000E+00  0.0000E+00  0.0000E+00  0.0000E+00
    -13.503  0.0000E+00  0.0000E+00  0.0000E+00  0.0000E+00  0.0000E+00  0.0000E+00  0.0000E+00  0.0000E+00  0.0000E+00  0.0000E+00  0.0000E+00  0.0000E+00  0.0000E+00  0.0000E+00  0.0000E+00  0.0000E+00  0.0000E+00  0.0000E+00
    -13.362  0.0000E+00  0.0000E+00  0.0000E+00  0.0000E+00  0.0000E+00  0.0000E+00  0.0000E+00  0.0000E+00  0.0000E+00  0.0000E+00  0.0000E+00  0.0000E+00  0.0000E+00  0.0000E+00  0.0000E+00  0.0000E+00  0.0000E+00  0.0000E+00
    -13.220  0.0000E+00  0.0000E+00  0.0000E+00  0.0000E+00  0.0000E+00  0.0000E+00  0.0000E+00  0.0000E+00  0.0000E+00  0.0000E+00  0.0000E+00  0.0000E+00  0.0000E+00  0.0000E+00  0.0000E+00  0.0000E+00  0.0000E+00  0.0000E+00
    -13.079  0.0000E+00  0.0000E+00  0.0000E+00  0.0000E+00  0.0000E+00  0.0000E+00  0.0000E+00  0.0000E+00  0.0000E+00  0.0000E+00  0.0000E+00  0.0000E+00  0.0000E+00  0.0000E+00  0.0000E+00  0.0000E+00  0.0000E+00  0.0000E+00
    -12.938  0.0000E+00  0.0000E+00  0.0000E+00  0.0000E+00  0.0000E+00  0.0000E+00  0.0000E+00  0.0000E+00  0.0000E+00  0.0000E+00  0.0000E+00  0.0000E+00  0.0000E+00  0.0000E+00  0.0000E+00  0.0000E+00  0.0000E+00  0.0000E+00
    -12.796  0.0000E+00  0.0000E+00  0.0000E+00  0.0000E+00  0.0000E+00  0.0000E+00  0.0000E+00  0.0000E+00  0.0000E+00  0.0000E+00  0.0000E+00  0.0000E+00  0.0000E+00  0.0000E+00  0.0000E+00  0.0000E+00  0.0000E+00  0.0000E+00
    -12.655  0.0000E+00  0.0000E+00  0.0000E+00  0.0000E+00  0.0000E+00  0.0000E+00  0.0000E+00  0.0000E+00  0.0000E+00  0.0000E+00  0.0000E+00  0.0000E+00  0.0000E+00  0.0000E+00  0.0000E+00  0.0000E+00  0.0000E+00  0.0000E+00
    -12.513  0.0000E+00  0.0000E+00  0.0000E+00  0.0000E+00  0.0000E+00  0.0000E+00  0.0000E+00  0.0000E+00  0.0000E+00  0.0000E+00  0.0000E+00  0.0000E+00  0.0000E+00  0.0000E+00  0.0000E+00  0.0000E+00  0.0000E+00  0.0000E+00
    -12.372  0.0000E+00  0.0000E+00  0.0000E+00  0.0000E+00  0.0000E+00  0.0000E+00  0.0000E+00  0.0000E+00  0.0000E+00  0.0000E+00  0.0000E+00  0.0000E+00  0.0000E+00  0.0000E+00  0.0000E+00  0.0000E+00  0.0000E+00  0.0000E+00
    -12.231  0.0000E+00  0.0000E+00  0.0000E+00  0.0000E+00  0.0000E+00  0.0000E+00  0.0000E+00  0.0000E+00  0.0000E+00  0.0000E+00  0.0000E+00  0.0000E+00  0.0000E+00  0.0000E+00  0.0000E+00  0.0000E+00  0.0000E+00  0.0000E+00
    -12.089  0.0000E+00  0.0000E+00  0.0000E+00  0.0000E+00  0.0000E+00  0.0000E+00  0.0000E+00  0.0000E+00  0.0000E+00  0.0000E+00  0.0000E+00  0.0000E+00  0.0000E+00  0.0000E+00  0.0000E+00  0.0000E+00  0.0000E+00  0.0000E+00
    -11.948  0.0000E+00  0.0000E+00  0.0000E+00  0.0000E+00  0.0000E+00  0.0000E+00  0.0000E+00  0.0000E+00  0.0000E+00  0.0000E+00  0.0000E+00  0.0000E+00  0.0000E+00  0.0000E+00  0.0000E+00  0.0000E+00  0.0000E+00  0.0000E+00
    -11.806  0.0000E+00  0.0000E+00  0.0000E+00  0.0000E+00  0.0000E+00  0.0000E+00  0.0000E+00  0.0000E+00  0.0000E+00  0.0000E+00  0.0000E+00  0.0000E+00  0.0000E+00  0.0000E+00  0.0000E+00  0.0000E+00  0.0000E+00  0.0000E+00
    -11.665  0.4717E-03  0.4719E-03  0.1032E-05  0.1032E-05  0.2064E-06  0.2065E-06  0.2484E-05  0.2485E-05  0.0000E+00  0.0000E+00  0.0000E+00  0.0000E+00  0.0000E+00  0.0000E+00  0.0000E+00  0.0000E+00  0.0000E+00  0.0000E+00
    -11.524  0.5810E-02  0.5810E-02  0.1913E-04  0.1913E-04  0.3374E-05  0.3374E-05  0.3895E-04  0.3895E-04  0.0000E+00  0.0000E+00  0.0000E+00  0.0000E+00  0.0000E+00  0.0000E+00  0.0000E+00  0.0000E+00  0.0000E+00  0.0000E+00
    -11.382  0.7575E-02  0.7575E-02  0.3747E-04  0.3747E-04  0.1171E-04  0.1171E-04  0.9268E-04  0.9269E-04  0.0000E+00  0.0000E+00  0.0000E+00  0.0000E+00  0.0000E+00  0.0000E+00  0.0000E+00  0.0000E+00  0.0000E+00  0.0000E+00
    -11.241  0.9398E-02  0.9398E-02  0.5850E-04  0.5850E-04  0.1853E-04  0.1853E-04  0.1618E-03  0.1618E-03  0.0000E+00  0.0000E+00  0.0000E+00  0.0000E+00  0.0000E+00  0.0000E+00  0.0000E+00  0.0000E+00  0.0000E+00  0.0000E+00
    -11.099  0.1190E-01  0.1190E-01  0.8634E-04  0.8634E-04  0.3028E-04  0.3028E-04  0.2466E-03  0.2466E-03  0.0000E+00  0.0000E+00  0.0000E+00  0.0000E+00  0.0000E+00  0.0000E+00  0.0000E+00  0.0000E+00  0.0000E+00  0.0000E+00
    -10.958  0.1267E-01  0.1267E-01  0.1112E-03  0.1112E-03  0.3901E-04  0.3901E-04  0.3379E-03  0.3379E-03  0.0000E+00  0.0000E+00  0.0000E+00  0.0000E+00  0.0000E+00  0.0000E+00  0.0000E+00  0.0000E+00  0.0000E+00  0.0000E+00
    -10.817  0.1356E-01  0.1356E-01  0.1530E-03  0.1530E-03  0.4671E-04  0.4671E-04  0.4424E-03  0.4424E-03  0.0000E+00  0.0000E+00  0.0000E+00  0.0000E+00  0.0000E+00  0.0000E+00  0.0000E+00  0.0000E+00  0.0000E+00  0.0000E+00
    -10.675  0.1477E-01  0.1477E-01  0.1879E-03  0.1879E-03  0.5630E-04  0.5630E-04  0.5438E-03  0.5438E-03  0.0000E+00  0.0000E+00  0.0000E+00  0.0000E+00  0.0000E+00  0.0000E+00  0.0000E+00  0.0000E+00  0.0000E+00  0.0000E+00
    -10.534  0.1594E-01  0.1594E-01  0.2208E-03  0.2208E-03  0.6728E-04  0.6728E-04  0.6535E-03  0.6535E-03  0.0000E+00  0.0000E+00  0.0000E+00  0.0000E+00  0.0000E+00  0.0000E+00  0.0000E+00  0.0000E+00  0.0000E+00  0.0000E+00
    -10.392  0.1730E-01  0.1730E-01  0.2676E-03  0.2676E-03  0.8080E-04  0.8080E-04  0.7779E-03  0.7779E-03  0.0000E+00  0.0000E+00  0.0000E+00  0.0000E+00  0.0000E+00  0.0000E+00  0.0000E+00  0.0000E+00  0.0000E+00  0.0000E+00
    -10.251  0.1855E-01  0.1856E-01  0.3218E-03  0.3218E-03  0.9341E-04  0.9341E-04  0.8485E-03  0.8485E-03  0.0000E+00  0.0000E+00  0.0000E+00  0.0000E+00  0.0000E+00  0.0000E+00  0.0000E+00  0.0000E+00  0.0000E+00  0.0000E+00
    -10.109  0.2001E-01  0.2001E-01  0.3736E-03  0.3736E-03  0.1071E-03  0.1071E-03  0.8871E-03  0.8871E-03  0.0000E+00  0.0000E+00  0.0000E+00  0.0000E+00  0.0000E+00  0.0000E+00  0.0000E+00  0.0000E+00  0.0000E+00  0.0000E+00
     -9.968  0.2171E-01  0.2171E-01  0.4222E-03  0.4222E-03  0.1248E-03  0.1248E-03  0.9148E-03  0.9148E-03  0.0000E+00  0.0000E+00  0.0000E+00  0.0000E+00  0.0000E+00  0.0000E+00  0.0000E+00  0.0000E+00  0.0000E+00  0.0000E+00
     -9.827  0.2353E-01  0.2353E-01  0.4740E-03  0.4740E-03  0.1441E-03  0.1441E-03  0.9288E-03  0.9288E-03  0.0000E+00  0.0000E+00  0.0000E+00  0.0000E+00  0.0000E+00  0.0000E+00  0.0000E+00  0.0000E+00  0.0000E+00  0.0000E+00
     -9.685  0.2569E-01  0.2569E-01  0.5580E-03  0.5580E-03  0.1642E-03  0.1642E-03  0.9373E-03  0.9373E-03  0.0000E+00  0.0000E+00  0.0000E+00  0.0000E+00  0.0000E+00  0.0000E+00  0.0000E+00  0.0000E+00  0.0000E+00  0.0000E+00
     -9.544  0.2815E-01  0.2815E-01  0.6478E-03  0.6478E-03  0.1854E-03  0.1854E-03  0.9198E-03  0.9198E-03  0.0000E+00  0.0000E+00  0.0000E+00  0.0000E+00  0.0000E+00  0.0000E+00  0.0000E+00  0.0000E+00  0.0000E+00  0.0000E+00
     -9.402  0.3075E-01  0.3075E-01  0.7483E-03  0.7483E-03  0.2091E-03  0.2091E-03  0.8948E-03  0.8948E-03  0.0000E+00  0.0000E+00  0.0000E+00  0.0000E+00  0.0000E+00  0.0000E+00  0.0000E+00  0.0000E+00  0.0000E+00  0.0000E+00
     -9.261  0.3053E-01  0.3053E-01  0.8437E-03  0.8437E-03  0.2308E-03  0.2308E-03  0.1158E-02  0.1158E-02  0.0000E+00  0.0000E+00  0.0000E+00  0.0000E+00  0.0000E+00  0.0000E+00  0.0000E+00  0.0000E+00  0.0000E+00  0.0000E+00
     -9.120  0.2959E-01  0.2959E-01  0.9124E-03  0.9124E-03  0.2515E-03  0.2515E-03  0.1496E-02  0.1496E-02  0.0000E+00  0.0000E+00  0.0000E+00  0.0000E+00  0.0000E+00  0.0000E+00  0.0000E+00  0.0000E+00  0.0000E+00  0.0000E+00
     -8.978  0.2923E-01  0.2923E-01  0.9850E-03  0.9851E-03  0.2721E-03  0.2721E-03  0.1798E-02  0.1798E-02  0.0000E+00  0.0000E+00  0.0000E+00  0.0000E+00  0.0000E+00  0.0000E+00  0.0000E+00  0.0000E+00  0.0000E+00  0.0000E+00
     -8.837  0.2870E-01  0.2870E-01  0.1062E-02  0.1062E-02  0.2898E-03  0.2898E-03  0.2139E-02  0.2139E-02  0.0000E+00  0.0000E+00  0.0000E+00  0.0000E+00  0.0000E+00  0.0000E+00  0.0000E+00  0.0000E+00  0.0000E+00  0.0000E+00
     -8.695  0.2859E-01  0.2859E-01  0.1105E-02  0.1105E-02  0.3088E-03  0.3088E-03  0.2443E-02  0.2443E-02  0.0000E+00  0.0000E+00  0.0000E+00  0.0000E+00  0.0000E+00  0.0000E+00  0.0000E+00  0.0000E+00  0.0000E+00  0.0000E+00
     -8.554  0.2880E-01  0.2880E-01  0.1119E-02  0.1119E-02  0.3277E-03  0.3277E-03  0.2720E-02  0.2720E-02  0.0000E+00  0.0000E+00  0.0000E+00  0.0000E+00  0.0000E+00  0.0000E+00  0.0000E+00  0.0000E+00  0.0000E+00  0.0000E+00
     -8.413  0.2906E-01  0.2906E-01  0.1111E-02  0.1111E-02  0.3475E-03  0.3475E-03  0.3000E-02  0.3000E-02  0.0000E+00  0.0000E+00  0.0000E+00  0.0000E+00  0.0000E+00  0.0000E+00  0.0000E+00  0.0000E+00  0.0000E+00  0.0000E+00
     -8.271  0.2934E-01  0.2934E-01  0.1081E-02  0.1081E-02  0.3682E-03  0.3682E-03  0.3284E-02  0.3284E-02  0.0000E+00  0.0000E+00  0.0000E+00  0.0000E+00  0.0000E+00  0.0000E+00  0.0000E+00  0.0000E+00  0.0000E+00  0.0000E+00
     -8.130  0.3022E-01  0.3022E-01  0.1054E-02  0.1054E-02  0.3921E-03  0.3921E-03  0.3737E-02  0.3737E-02  0.0000E+00  0.0000E+00  0.0000E+00  0.0000E+00  0.0000E+00  0.0000E+00  0.0000E+00  0.0000E+00  0.0000E+00  0.0000E+00
     -7.988  0.3222E-01  0.3222E-01  0.1067E-02  0.1067E-02  0.4241E-03  0.4241E-03  0.4238E-02  0.4238E-02  0.0000E+00  0.0000E+00  0.0000E+00  0.0000E+00  0.0000E+00  0.0000E+00  0.0000E+00  0.0000E+00  0.0000E+00  0.0000E+00
     -7.847  0.3347E-01  0.3347E-01  0.1061E-02  0.1061E-02  0.4519E-03  0.4519E-03  0.4385E-02  0.4385E-02  0.0000E+00  0.0000E+00  0.0000E+00  0.0000E+00  0.0000E+00  0.0000E+00  0.0000E+00  0.0000E+00  0.0000E+00  0.0000E+00
     -7.706  0.3471E-01  0.3471E-01  0.1061E-02  0.1061E-02  0.4815E-03  0.4815E-03  0.4456E-02  0.4456E-02  0.0000E+00  0.0000E+00  0.0000E+00  0.0000E+00  0.0000E+00  0.0000E+00  0.0000E+00  0.0000E+00  0.0000E+00  0.0000E+00
     -7.564  0.3717E-01  0.3717E-01  0.1089E-02  0.1089E-02  0.5144E-03  0.5144E-03  0.4576E-02  0.4577E-02  0.0000E+00  0.0000E+00  0.0000E+00  0.0000E+00  0.0000E+00  0.0000E+00  0.0000E+00  0.0000E+00  0.0000E+00  0.0000E+00
     -7.423  0.3970E-01  0.3970E-01  0.1131E-02  0.1131E-02  0.5494E-03  0.5494E-03  0.4710E-02  0.4710E-02  0.0000E+00  0.0000E+00  0.0000E+00  0.0000E+00  0.0000E+00  0.0000E+00  0.0000E+00  0.0000E+00  0.0000E+00  0.0000E+00
     -7.281  0.3965E-01  0.3965E-01  0.1131E-02  0.1131E-02  0.5661E-03  0.5661E-03  0.4581E-02  0.4581E-02  0.0000E+00  0.0000E+00  0.0000E+00  0.0000E+00  0.0000E+00  0.0000E+00  0.0000E+00  0.0000E+00  0.0000E+00  0.0000E+00
     -7.140  0.3904E-01  0.3904E-01  0.1176E-02  0.1176E-02  0.5719E-03  0.5719E-03  0.4404E-02  0.4404E-02  0.0000E+00  0.0000E+00  0.0000E+00  0.0000E+00  0.0000E+00  0.0000E+00  0.0000E+00  0.0000E+00  0.0000E+00  0.0000E+00
     -6.999  0.3837E-01  0.3837E-01  0.1418E-02  0.1418E-02  0.5641E-03  0.5641E-03  0.4166E-02  0.4166E-02  0.0000E+00  0.0000E+00  0.0000E+00  0.0000E+00  0.0000E+00  0.0000E+00  0.0000E+00  0.0000E+00  0.0000E+00  0.0000E+00
     -6.857  0.3712E-01  0.3712E-01  0.1798E-02  0.1798E-02  0.5340E-03  0.5340E-03  0.3946E-02  0.3946E-02  0.0000E+00  0.0000E+00  0.0000E+00  0.0000E+00  0.0000E+00  0.0000E+00  0.0000E+00  0.0000E+00  0.0000E+00  0.0000E+00
     -6.716  0.3667E-01  0.3667E-01  0.2302E-02  0.2302E-02  0.5018E-03  0.5018E-03  0.3896E-02  0.3895E-02  0.0000E+00  0.0000E+00  0.0000E+00  0.0000E+00  0.0000E+00  0.0000E+00  0.0000E+00  0.0000E+00  0.0000E+00  0.0000E+00
     -6.574  0.3659E-01  0.3659E-01  0.2900E-02  0.2900E-02  0.4883E-03  0.4883E-03  0.3909E-02  0.3909E-02  0.0000E+00  0.0000E+00  0.0000E+00  0.0000E+00  0.0000E+00  0.0000E+00  0.0000E+00  0.0000E+00  0.0000E+00  0.0000E+00