    8    8  100    2
  0.5414167E+01  0.3511887E-09  0.3511887E-09  0.3511887E-09  0.1500000E-16
   1.0000000000000000E-004
  CAR 
 unknown system                          
     32     35     28
 
  0.3742002E-15  0.3742002E-15  0.3742002E-15  0.1953125E-02
    1      -11.716324    -11.716333   1.000000   1.000000
    2       -2.964125     -2.964135   1.000000   1.000000
    3       -2.964064     -2.964074   1.000000   1.000000
    4       -2.964064     -2.964074   1.000000   1.000000
    5       -2.964055     -2.964065   1.000000   1.000000
    6       -2.963983     -2.963993   1.000000   1.000000
    7       -2.963982     -2.963993   1.000000   1.000000
    8        3.514640      3.514630   1.000000   1.000000
    9        3.514640      3.514630   1.000000   1.000000
   10        3.514662      3.514652   1.000000   1.000000
   11        3.514693      3.514683   1.000000   1.000000
   12        3.514715      3.514705   1.000000   1.000000
   13        3.514715      3.514705   1.000000   1.000000
   14        9.867028      9.867017   1.000000   1.000000
   15        9.867028      9.867017   1.000000   1.000000
   16        9.867139      9.867128   1.000000   1.000000
   17       14.625546     14.625538   0.000000   0.000000
   18       14.625546     14.625538   0.000000   0.000000
   19       14.625564     14.625556   0.000000   0.000000
   20       14.625578     14.625570   0.000000   0.000000
   21       14.625578     14.625570   0.000000   0.000000
   22       14.625677     14.625669   0.000000   0.000000
   23       15.472044     15.472033   0.000000   0.000000
   24       15.472123     15.472112   0.000000   0.000000
   25       15.472123     15.472112   0.000000   0.000000
   26       23.310341     23.310326   0.000000   0.000000
   27       26.847674     26.847643   0.000000   0.000000
   28       26.847679     26.847664   0.000000   0.000000
 
  0.1250000E+00  0.3742002E-15  0.3742002E-15  0.1171875E-01
    1      -11.571439    -11.571448   1.000000   1.000000
    2       -4.897197     -4.897207   1.000000   1.000000
    3       -2.872768     -2.872778   1.000000   1.000000
    4       -2.872743     -2.872753   1.000000   1.000000
    5       -2.872728     -2.872738   1.000000   1.000000
    6       -2.872660     -2.872671   1.000000   1.000000
    7       -0.895943     -0.895953   1.000000   1.000000
    8        3.203662      3.203652   1.000000   1.000000
    9        3.203688      3.203678   1.000000   1.000000
   10        3.203700      3.203690   1.000000   1.000000
   11        3.203725      3.203715   1.000000   1.000000
   12        3.653875      3.653865   1.000000   1.000000
   13        3.653902      3.653892   1.000000   1.000000
   14        9.306584      9.306573   1.000000   1.000000
   15        9.306647      9.306636   1.000000   1.000000
   16        9.514651      9.514639   1.000000   1.000000
   17       14.164733     14.164725   0.000000   0.000000
   18       15.206459     15.206451   0.000000   0.000000
   19       15.206475     15.206466   0.000000   0.000000
   20       15.206492     15.206484   0.000000   0.000000
   21       15.206549     15.206541   0.000000   0.000000
   22       15.369071     15.369060   0.000000   0.000000
   23       15.417111     15.417103   0.000000   0.000000
   24       16.166034     16.166023   0.000000   0.000000
   25       16.166076     16.166064   0.000000   0.000000
   26       23.407858     23.407844   0.000000   0.000000
   27       26.355084     26.355085   0.000000   0.000000
   28       26.355115     26.355217   0.000000   0.000000
 
  0.2500000E+00  0.3742002E-15  0.3742002E-15  0.1171875E-01
    1      -11.137901    -11.137911   1.000000   1.000000
    2       -6.640237     -6.640247   1.000000   1.000000
    3       -2.623837     -2.623847   1.000000   1.000000
    4       -2.623811     -2.623821   1.000000   1.000000
    5       -2.623794     -2.623804   1.000000   1.000000
    6       -2.623721     -2.623732   1.000000   1.000000
    7        1.234891      1.234880   1.000000   1.000000
    8        2.487980      2.487970   1.000000   1.000000
    9        2.487998      2.487988   1.000000   1.000000
   10        2.488015      2.488005   1.000000   1.000000
   11        2.488031      2.488021   1.000000   1.000000
   12        4.072981      4.072971   1.000000   1.000000
   13        4.073010      4.072999   1.000000   1.000000
   14        8.122467      8.122456   1.000000   1.000000
   15        8.122515      8.122504   1.000000   1.000000
   16        8.529752      8.529741   1.000000   1.000000
   17       13.995205     13.995196   0.000000   0.000000
   18       15.058085     15.058074   0.000000   0.000000
   19       16.596764     16.596757   0.000000   0.000000
   20       16.747709     16.747700   0.000000   0.000000
   21       16.747722     16.747713   0.000000   0.000000
   22       16.747745     16.747736   0.000000   0.000000
   23       16.747794     16.747785   0.000000   0.000000
   24       17.721486     17.721474   0.000000   0.000000
   25       17.721514     17.721502   0.000000   0.000000
   26       23.291332     23.291319   0.000000   0.000000
   27       25.112455     25.112440   0.000000   0.000000
   28       25.112480     25.112465   0.000000   0.000000
 
  0.3750000E+00  0.3742002E-15  0.3742002E-15  0.1171875E-01
    1      -10.419232    -10.419242   1.000000   1.000000
    2       -8.156641     -8.156651   1.000000   1.000000
    3       -2.317867     -2.317878   1.000000   1.000000
    4       -2.317837     -2.317848   1.000000   1.000000
    5       -2.317818     -2.317829   1.000000   1.000000
    6       -2.317738     -2.317749   1.000000   1.000000
    7        1.777841      1.777832   1.000000   1.000000
    8        1.777850      1.777841   1.000000   1.000000
    9        1.777876      1.777867   1.000000   1.000000
   10        1.777883      1.777874   1.000000   1.000000
   11        3.340065      3.340053   1.000000   1.000000
   12        4.762969      4.762959   1.000000   1.000000
   13        4.762999      4.762989   1.000000   1.000000
   14        6.853443      6.853433   1.000000   1.000000
   15        6.853482      6.853472   1.000000   1.000000
   16        7.086309      7.086297   1.000000   1.000000
   17       14.066496     14.066487   0.000000   0.000000
   18       14.672819     14.672809   0.000000   0.000000
   19       18.191087     18.191080   0.000000   0.000000
   20       18.833239     18.833230   0.000000   0.000000
   21       18.833249     18.833239   0.000000   0.000000
   22       18.833283     18.833273   0.000000   0.000000
   23       18.833326     18.833317   0.000000   0.000000
   24       19.599086     19.599073   0.000000   0.000000
   25       19.599108     19.599095   0.000000   0.000000
   26       22.120379     22.120368   0.000000   0.000000
   27       23.426990     23.426976   0.000000   0.000000
   28       23.427012     23.426998   0.000000   0.000000
 
  0.5000000E+00  0.3742002E-15  0.3742002E-15  0.5859375E-02
    1       -9.422087     -9.422097   1.000000   1.000000
    2       -9.421983     -9.421993   1.000000   1.000000
    3       -2.164706     -2.164717   1.000000   1.000000
    4       -2.164674     -2.164685   1.000000   1.000000
    5       -2.164654     -2.164665   1.000000   1.000000
    6       -2.164568     -2.164579   1.000000   1.000000
    7        1.472583      1.472574   1.000000   1.000000
    8        1.472586      1.472578   1.000000   1.000000
    9        1.472618      1.472609   1.000000   1.000000
   10        1.472621      1.472612   1.000000   1.000000
   11        5.318697      5.318686   1.000000   1.000000
   12        5.318734      5.318722   1.000000   1.000000
   13        5.700385      5.700374   1.000000   1.000000
   14        5.700418      5.700408   1.000000   1.000000
   15        5.700504      5.700493   1.000000   1.000000
   16        5.700538      5.700527   1.000000   1.000000
   17       14.310073     14.310063   0.000000   0.000000
   18       14.310138     14.310128   0.000000   0.000000
   19       20.138648     20.138639   0.000000   0.000000
   20       20.138687     20.138678   0.000000   0.000000
   21       20.521697     20.521688   0.000000   0.000000
   22       20.521703     20.521694   0.000000   0.000000
   23       20.521777     20.521768   0.000000   0.000000
   24       20.521818     20.521809   0.000000   0.000000
   25       21.531173     21.531159   0.000000   0.000000
   26       21.531193     21.531179   0.000000   0.000000
   27       21.531195     21.531182   0.000000   0.000000
   28       21.531215     21.531202   0.000000   0.000000
 
  0.1250000E+00  0.1250000E+00  0.3742002E-15  0.2343750E-01
    1      -11.426772    -11.426782   1.000000   1.000000
    2       -4.780536     -4.780546   1.000000   1.000000
    3       -4.780490     -4.780500   1.000000   1.000000
    4       -2.879140     -2.879150   1.000000   1.000000
    5       -2.704869     -2.704879   1.000000   1.000000
    6       -0.857990     -0.858001   1.000000   1.000000
    7       -0.857955     -0.857966   1.000000   1.000000
    8        2.236072      2.236062   1.000000   1.000000
    9        3.305023      3.305013   1.000000   1.000000
   10        3.305035      3.305025   1.000000   1.000000
   11        3.412420      3.412411   1.000000   1.000000
   12        3.412473      3.412463   1.000000   1.000000
   13        3.756043      3.756033   1.000000   1.000000
   14        8.432197      8.432186   1.000000   1.000000
   15        8.783438      8.783426   1.000000   1.000000
   16        9.687055      9.687044   1.000000   1.000000
   17       14.766515     14.766507   0.000000   0.000000
   18       14.766538     14.766529   0.000000   0.000000
   19       14.856974     14.856966   0.000000   0.000000
   20       15.773173     15.773161   0.000000   0.000000
   21       15.974305     15.974297   0.000000   0.000000
   22       15.974356     15.974348   0.000000   0.000000
   23       16.313204     16.313192   0.000000   0.000000
   24       16.544969     16.544960   0.000000   0.000000
   25       16.609548     16.609536   0.000000   0.000000
   26       23.536042     23.536029   0.000000   0.000000
   27       25.826892     25.826878   0.000000   0.000000
   28       25.826937     25.826923   0.000000   0.000000
 
  0.2500000E+00  0.1250000E+00  0.3742002E-15  0.4687500E-01
    1      -10.993950    -10.993959   1.000000   1.000000
    2       -6.510806     -6.510816   1.000000   1.000000
    3       -4.441441     -4.441451   1.000000   1.000000
    4       -2.821379     -2.821389   1.000000   1.000000
    5       -2.356549     -2.356559   1.000000   1.000000
    6       -0.804862     -0.804873   1.000000   1.000000
    7        1.147022      1.147011   1.000000   1.000000
    8        1.268033      1.268024   1.000000   1.000000
    9        2.483454      2.483444   1.000000   1.000000
   10        2.910194      2.910185   1.000000   1.000000
   11        3.688418      3.688408   1.000000   1.000000
   12        3.699334      3.699324   1.000000   1.000000
   13        3.973534      3.973524   1.000000   1.000000
   14        7.150198      7.150187   1.000000   1.000000
   15        7.648352      7.648342   1.000000   1.000000
   16        9.091576      9.091565   1.000000   1.000000
   17       14.609088     14.609078   0.000000   0.000000
   18       15.639540     15.639529   0.000000   0.000000
   19       15.656287     15.656278   0.000000   0.000000
   20       16.350062     16.350053   0.000000   0.000000
   21       17.116259     17.116251   0.000000   0.000000
   22       17.449544     17.449535   0.000000   0.000000
   23       17.694110     17.694098   0.000000   0.000000
   24       17.773360     17.773347   0.000000   0.000000
   25       18.509697     18.509687   0.000000   0.000000
   26       23.508030     23.508017   0.000000   0.000000
   27       24.393256     24.393242   0.000000   0.000000
   28       24.499137     24.499123   0.000000   0.000000
 
  0.3750000E+00  0.1250000E+00  0.3742002E-15  0.4687500E-01
    1      -10.276693    -10.276703   1.000000   1.000000
    2       -8.020393     -8.020402   1.000000   1.000000
    3       -3.924765     -3.924776   1.000000   1.000000
    4       -2.918742     -2.918753   1.000000   1.000000
    5       -1.859577     -1.859587   1.000000   1.000000
    6       -0.915894     -0.915904   1.000000   1.000000
    7        0.729310      0.729301   1.000000   1.000000
    8        1.570805      1.570796   1.000000   1.000000
    9        2.593428      2.593419   1.000000   1.000000
   10        2.955446      2.955435   1.000000   1.000000
   11        3.218755      3.218745   1.000000   1.000000
   12        4.368253      4.368243   1.000000   1.000000
   13        4.967999      4.967989   1.000000   1.000000
   14        5.798838      5.798827   1.000000   1.000000
   15        6.408160      6.408150   1.000000   1.000000
   16        7.876737      7.876726   1.000000   1.000000
   17       14.684230     14.684221   0.000000   0.000000
   18       15.275034     15.275023   0.000000   0.000000
   19       17.345463     17.345454   0.000000   0.000000
   20       18.500410     18.500400   0.000000   0.000000
   21       18.660935     18.660927   0.000000   0.000000
   22       19.348037     19.348028   0.000000   0.000000
   23       19.349932     19.349920   0.000000   0.000000
   24       19.562221     19.562209   0.000000   0.000000
   25       20.736599     20.736589   0.000000   0.000000
   26       22.436343     22.436333   0.000000   0.000000
   27       22.480333     22.480320   0.000000   0.000000
   28       22.857446     22.857432   0.000000   0.000000
 
  0.5000000E+00  0.1250000E+00  0.3742002E-15  0.2343750E-01
    1       -9.281837     -9.281847   1.000000   1.000000
    2       -9.281734     -9.281743   1.000000   1.000000
    3       -3.342063     -3.342073   1.000000   1.000000
    4       -3.341972     -3.341983   1.000000   1.000000
    5       -1.315232     -1.315243   1.000000   1.000000
    6       -1.315185     -1.315196   1.000000   1.000000
    7        0.882499      0.882491   1.000000   1.000000
    8        0.882531      0.882523   1.000000   1.000000
    9        2.739427      2.739418   1.000000   1.000000
   10        2.739470      2.739461   1.000000   1.000000
   11        4.448023      4.448012   1.000000   1.000000
   12        4.448078      4.448067   1.000000   1.000000
   13        5.284953      5.284943   1.000000   1.000000
   14        5.284988      5.284978   1.000000   1.000000
   15        6.380056      6.380045   1.000000   1.000000
   16        6.380112      6.380101   1.000000   1.000000
   17       14.925416     14.925406   0.000000   0.000000
   18       14.925480     14.925470   0.000000   0.000000
   19       19.365326     19.365317   0.000000   0.000000
   20       19.365373     19.365364   0.000000   0.000000
   21       20.546994     20.546986   0.000000   0.000000
   22       20.547036     20.547027   0.000000   0.000000
   23       20.811045     20.811035   0.000000   0.000000
   24       20.811079     20.811069   0.000000   0.000000
   25       21.093605     21.093592   0.000000   0.000000
   26       21.093629     21.093615   0.000000   0.000000
   27       21.532727     21.532714   0.000000   0.000000
   28       21.532750     21.532737   0.000000   0.000000
 
  0.2500000E+00  0.2500000E+00  0.3742002E-15  0.2343750E-01
    1      -10.563461    -10.563470   1.000000   1.000000
    2       -6.128531     -6.128541   1.000000   1.000000
    3       -6.128487     -6.128497   1.000000   1.000000
    4       -3.170750     -3.170761   1.000000   1.000000
    5       -1.929397     -1.929408   1.000000   1.000000
    6        0.472657      0.472648   1.000000   1.000000
    7        0.806643      0.806632   1.000000   1.000000
    8        0.806647      0.806636   1.000000   1.000000
    9        2.813383      2.813373   1.000000   1.000000
   10        2.813383      2.813373   1.000000   1.000000
   11        3.869932      3.869922   1.000000   1.000000
   12        3.870024      3.870014   1.000000   1.000000
   13        4.457983      4.457973   1.000000   1.000000
   14        5.850056      5.850045   1.000000   1.000000
   15        6.584347      6.584336   1.000000   1.000000
   16        9.105066      9.105054   1.000000   1.000000
   17       15.544767     15.544759   0.000000   0.000000
   18       16.201770     16.201761   0.000000   0.000000
   19       16.201779     16.201769   0.000000   0.000000
   20       16.643681     16.643669   0.000000   0.000000
   21       17.974735     17.974723   0.000000   0.000000
   22       18.087415     18.087402   0.000000   0.000000
   23       18.479842     18.479834   0.000000   0.000000
   24       18.479901     18.479893   0.000000   0.000000
   25       20.659688     20.659677   0.000000   0.000000
   26       22.943944     22.943930   0.000000   0.000000
   27       22.944024     22.944011   0.000000   0.000000
   28       23.769176     23.769163   0.000000   0.000000
 
  0.3750000E+00  0.2500000E+00  0.3742002E-15  0.4687500E-01
    1       -9.850611     -9.850621   1.000000   1.000000
    2       -7.615017     -7.615027   1.000000   1.000000
    3       -5.514019     -5.514029   1.000000   1.000000
    4       -3.857761     -3.857771   1.000000   1.000000
    5       -1.330377     -1.330388   1.000000   1.000000
    6        0.173990      0.173980   1.000000   1.000000
    7        0.401036      0.401027   1.000000   1.000000
    8        1.801513      1.801503   1.000000   1.000000
    9        2.118477      2.118467   1.000000   1.000000
   10        3.435709      3.435699   1.000000   1.000000
   11        4.012859      4.012849   1.000000   1.000000
   12        4.545526      4.545515   1.000000   1.000000
   13        4.603587      4.603577   1.000000   1.000000
   14        5.337655      5.337645   1.000000   1.000000
   15        5.395262      5.395252   1.000000   1.000000
   16        8.318233      8.318221   1.000000   1.000000
   17       16.263725     16.263715   0.000000   0.000000
   18       16.518051     16.518042   0.000000   0.000000
   19       16.707821     16.707810   0.000000   0.000000
   20       18.349928     18.349918   0.000000   0.000000
   21       18.853762     18.853750   0.000000   0.000000
   22       19.528640     19.528627   0.000000   0.000000
   23       19.743998     19.743990   0.000000   0.000000
   24       19.827294     19.827286   0.000000   0.000000
   25       21.506156     21.506142   0.000000   0.000000
   26       21.562678     21.562665   0.000000   0.000000
   27       22.680768     22.680757   0.000000   0.000000
   28       23.073086     23.073075   0.000000   0.000000
 
  0.5000000E+00  0.2500000E+00  0.3742002E-15  0.2343750E-01
    1       -8.863328     -8.863337   1.000000   1.000000
    2       -8.863224     -8.863234   1.000000   1.000000
    3       -4.717626     -4.717636   1.000000   1.000000
    4       -4.717526     -4.717536   1.000000   1.000000
    5       -0.596532     -0.596543   1.000000   1.000000
    6       -0.596490     -0.596501   1.000000   1.000000
    7        0.927999      0.927990   1.000000   1.000000
    8        0.928039      0.928030   1.000000   1.000000
    9        3.312264      3.312253   1.000000   1.000000
   10        3.312316      3.312306   1.000000   1.000000
   11        4.315286      4.315276   1.000000   1.000000
   12        4.315325      4.315315   1.000000   1.000000
   13        4.342640      4.342630   1.000000   1.000000
   14        4.342696      4.342686   1.000000   1.000000
   15        6.951980      6.951969   1.000000   1.000000
   16        6.952036      6.952025   1.000000   1.000000
   17       16.463563     16.463553   0.000000   0.000000
   18       16.463624     16.463614   0.000000   0.000000
   19       18.255533     18.255524   0.000000   0.000000
   20       18.255577     18.255568   0.000000   0.000000
   21       19.965479     19.965467   0.000000   0.000000
   22       19.965521     19.965509   0.000000   0.000000
   23       20.691986     20.691974   0.000000   0.000000
   24       20.692016     20.692004   0.000000   0.000000
   25       21.525497     21.525484   0.000000   0.000000
   26       21.525525     21.525512   0.000000   0.000000
   27       21.668439     21.668429   0.000000   0.000000
   28       21.668475     21.668465   0.000000   0.000000
 
  0.3750000E+00  0.3750000E+00  0.3742002E-15  0.2343750E-01
    1       -9.146287     -9.146297   1.000000   1.000000
    2       -6.951914     -6.951924   1.000000   1.000000
    3       -6.951871     -6.951881   1.000000   1.000000
    4       -4.983769     -4.983779   1.000000   1.000000
    5       -0.648769     -0.648780   1.000000   1.000000
    6        0.700354      0.700345   1.000000   1.000000
    7        1.143080      1.143069   1.000000   1.000000
    8        1.143083      1.143072   1.000000   1.000000
    9        2.368870      2.368860   1.000000   1.000000
   10        2.368876      2.368866   1.000000   1.000000
   11        3.310826      3.310815   1.000000   1.000000
   12        4.251193      4.251183   1.000000   1.000000
   13        5.531073      5.531062   1.000000   1.000000
   14        5.679995      5.679984   1.000000   1.000000
   15        5.680101      5.680090   1.000000   1.000000
   16        8.098003      8.097991   1.000000   1.000000
   17       16.611564     16.611555   0.000000   0.000000
   18       18.051962     18.051950   0.000000   0.000000
   19       18.346278     18.346267   0.000000   0.000000
   20       18.346279     18.346268   0.000000   0.000000
   21       18.543649     18.543637   0.000000   0.000000
   22       19.288162     19.288152   0.000000   0.000000
   23       19.288222     19.288212   0.000000   0.000000
   24       19.974929     19.974917   0.000000   0.000000
   25       22.001474     22.001463   0.000000   0.000000
   26       22.001508     22.001497   0.000000   0.000000
   27       22.122663     22.122650   0.000000   0.000000
   28       23.585999     23.585976   0.000000   0.000000
 
  0.5000000E+00  0.3750000E+00  0.3742002E-15  0.2343750E-01
    1       -8.173941     -8.173951   1.000000   1.000000
    2       -8.173837     -8.173847   1.000000   1.000000
    3       -6.056608     -6.056618   1.000000   1.000000
    4       -6.056505     -6.056515   1.000000   1.000000
    5        0.189936      0.189926   1.000000   1.000000
    6        0.189980      0.189970   1.000000   1.000000
    7        1.407261      1.407252   1.000000   1.000000
    8        1.407304      1.407295   1.000000   1.000000
    9        2.170032      2.170021   1.000000   1.000000
   10        2.170081      2.170071   1.000000   1.000000
   11        3.206619      3.206609   1.000000   1.000000
   12        3.206661      3.206651   1.000000   1.000000
   13        5.829601      5.829590   1.000000   1.000000
   14        5.829660      5.829650   1.000000   1.000000
   15        7.156534      7.156523   1.000000   1.000000
   16        7.156589      7.156578   1.000000   1.000000
   17       17.663724     17.663715   0.000000   0.000000
   18       17.663768     17.663758   0.000000   0.000000
   19       18.374164     18.374152   0.000000   0.000000
   20       18.374221     18.374209   0.000000   0.000000
   21       18.704521     18.704510   0.000000   0.000000
   22       18.704565     18.704554   0.000000   0.000000
   23       20.503857     20.503845   0.000000   0.000000
   24       20.503894     20.503882   0.000000   0.000000
   25       21.626512     21.626499   0.000000   0.000000
   26       21.626554     21.626542   0.000000   0.000000
   27       23.036159     23.036148   0.000000   0.000000
   28       23.036195     23.036183   0.000000   0.000000
 
  0.5000000E+00  0.5000000E+00  0.3742002E-15  0.5859375E-02
    1       -7.228697     -7.228707   1.000000   1.000000
    2       -7.228552     -7.228562   1.000000   1.000000
    3       -7.228549     -7.228559   1.000000   1.000000
    4       -7.228489     -7.228499   1.000000   1.000000
    5        1.113556      1.113546   1.000000   1.000000
    6        1.113558      1.113547   1.000000   1.000000
    7        1.113603      1.113592   1.000000   1.000000
    8        1.113606      1.113596   1.000000   1.000000
    9        2.197042      2.197032   1.000000   1.000000
   10        2.197072      2.197063   1.000000   1.000000
   11        2.197081      2.197071   1.000000   1.000000
   12        2.197126      2.197117   1.000000   1.000000
   13        6.824584      6.824573   1.000000   1.000000
   14        6.824628      6.824617   1.000000   1.000000
   15        6.824672      6.824661   1.000000   1.000000
   16        6.824757      6.824746   1.000000   1.000000
   17       17.820197     17.820187   0.000000   0.000000
   18       17.820259     17.820249   0.000000   0.000000
   19       17.820285     17.820275   0.000000   0.000000
   20       17.820321     17.820311   0.000000   0.000000
   21       19.930009     19.929996   0.000000   0.000000
   22       19.930011     19.929998   0.000000   0.000000
   23       19.930059     19.930046   0.000000   0.000000
   24       19.930066     19.930053   0.000000   0.000000
   25       22.302678     22.302665   0.000000   0.000000
   26       22.302718     22.302705   0.000000   0.000000
   27       22.302757     22.302744   0.000000   0.000000
   28       22.302810     22.302798   0.000000   0.000000
 
  0.1250000E+00  0.1250000E+00  0.1250000E+00  0.1562500E-01
    1      -11.282352    -11.282362   1.000000   1.000000
    2       -4.668962     -4.668972   1.000000   1.000000
    3       -4.668891     -4.668901   1.000000   1.000000
    4       -4.668891     -4.668901   1.000000   1.000000
    5       -0.859475     -0.859486   1.000000   1.000000
    6       -0.859429     -0.859439   1.000000   1.000000
    7       -0.859429     -0.859439   1.000000   1.000000
    8        2.459549      2.459540   1.000000   1.000000
    9        2.459601      2.459591   1.000000   1.000000
   10        2.459601      2.459591   1.000000   1.000000
   11        3.891377      3.891366   1.000000   1.000000
   12        3.891377      3.891366   1.000000   1.000000
   13        3.891420      3.891410   1.000000   1.000000
   14        7.431250      7.431239   1.000000   1.000000
   15        9.206274      9.206262   1.000000   1.000000
   16        9.206274      9.206262   1.000000   1.000000
   17       14.837925     14.837916   0.000000   0.000000
   18       14.837925     14.837916   0.000000   0.000000
   19       14.837970     14.837961   0.000000   0.000000
   20       16.344206     16.344195   0.000000   0.000000
   21       16.344206     16.344195   0.000000   0.000000
   22       16.771405     16.771393   0.000000   0.000000
   23       16.884186     16.884177   0.000000   0.000000
   24       16.884186     16.884177   0.000000   0.000000
   25       16.884247     16.884239   0.000000   0.000000
   26       23.686440     23.686426   0.000000   0.000000
   27       25.652874     25.652858   0.000000   0.000000
   28       25.652879     25.652867   0.000000   0.000000
 
  0.2500000E+00  0.1250000E+00  0.1250000E+00  0.4687500E-01
    1      -10.850290    -10.850299   1.000000   1.000000
    2       -6.383369     -6.383379   1.000000   1.000000
    3       -4.353262     -4.353273   1.000000   1.000000
    4       -4.353209     -4.353219   1.000000   1.000000
    5       -0.974111     -0.974121   1.000000   1.000000
    6       -0.974095     -0.974105   1.000000   1.000000
    7        0.913303      0.913292   1.000000   1.000000
    8        1.673484      1.673475   1.000000   1.000000
    9        1.673533      1.673524   1.000000   1.000000
   10        3.213431      3.213421   1.000000   1.000000
   11        3.842072      3.842062   1.000000   1.000000
   12        3.842089      3.842079   1.000000   1.000000
   13        4.298345      4.298335   1.000000   1.000000
   14        6.075644      6.075633   1.000000   1.000000
   15        8.144089      8.144078   1.000000   1.000000
   16        8.899208      8.899197   1.000000   1.000000
   17       14.874088     14.874079   0.000000   0.000000
   18       15.714884     15.714875   0.000000   0.000000
   19       15.714914     15.714906   0.000000   0.000000
   20       16.100970     16.100959   0.000000   0.000000
   21       17.690982     17.690970   0.000000   0.000000
   22       17.736257     17.736245   0.000000   0.000000
   23       17.810726     17.810717   0.000000   0.000000
   24       18.749284     18.749275   0.000000   0.000000
   25       18.749317     18.749308   0.000000   0.000000
   26       23.739849     23.739836   0.000000   0.000000
   27       24.338018     24.337995   0.000000   0.000000
   28       24.339976     24.340600   0.000000   0.000000
 
  0.3750000E+00  0.1250000E+00  0.1250000E+00  0.4687500E-01
    1      -10.134463    -10.134472   1.000000   1.000000
    2       -7.885083     -7.885093   1.000000   1.000000
    3       -3.921620     -3.921630   1.000000   1.000000
    4       -3.921552     -3.921563   1.000000   1.000000
    5       -1.363532     -1.363542   1.000000   1.000000
    6       -1.363521     -1.363531   1.000000   1.000000
    7        1.388621      1.388612   1.000000   1.000000
    8        1.388695      1.388685   1.000000   1.000000
    9        2.301109      2.301099   1.000000   1.000000
   10        3.460227      3.460217   1.000000   1.000000
   11        3.460229      3.460219   1.000000   1.000000
   12        4.601255      4.601245   1.000000   1.000000
   13        4.734915      4.734905   1.000000   1.000000
   14        4.967184      4.967173   1.000000   1.000000
   15        6.959149      6.959138   1.000000   1.000000
   16        7.814326      7.814314   1.000000   1.000000
   17       15.047776     15.047766   0.000000   0.000000
   18       15.720738     15.720727   0.000000   0.000000