       N       E                     dE             d eps       ncg     rms          rms(c)
DAV:   1    -0.478708090401E+02   -0.47871E+02   -0.15350E+04  3984   0.927E+02
DAV:   2    -0.179379520341E+03   -0.13151E+03   -0.12520E+03  5148   0.227E+02
DAV:   3    -0.184665258523E+03   -0.52857E+01   -0.52415E+01  5264   0.403E+01
DAV:   4    -0.184746054214E+03   -0.80796E-01   -0.80523E-01  4996   0.528E+00
DAV:   5    -0.184748122546E+03   -0.20683E-02   -0.20671E-02  5260   0.792E-01    0.483E+01
DAV:   6    -0.102463940070E+03    0.82284E+02   -0.46218E+01  4292   0.334E+01    0.257E+01
DAV:   7    -0.722775493655E+02    0.30186E+02   -0.59591E+01  4656   0.382E+01    0.347E+00
DAV:   8    -0.725305268855E+02   -0.25298E+00   -0.18225E+00  4808   0.651E+00    0.130E+00
DAV:   9    -0.725704202278E+02   -0.39893E-01   -0.13450E-01  4596   0.257E+00    0.242E-01
DAV:  10    -0.725814566145E+02   -0.11036E-01   -0.15200E-02  4592   0.894E-01    0.847E-02
DAV:  11    -0.725820442168E+02   -0.58760E-03   -0.36615E-04  4800   0.166E-01    0.518E-02
DAV:  12    -0.725823640831E+02   -0.31987E-03   -0.17095E-04  4416   0.108E-01    0.104E-02
DAV:  13    -0.725823727197E+02   -0.86366E-05   -0.10471E-05  4736   0.216E-02    0.190E-03
DAV:  14    -0.725823733837E+02   -0.66395E-06   -0.38505E-07  3104   0.483E-03
   1 F= -.72582373E+02 E0= -.72582373E+02  d E =-.725824E+02  mag=     0.0000
       N       E                     dE             d eps       ncg     rms          rms(c)
DAV:   1    -0.725989191139E+02   -0.16546E-01   -0.90095E-03  4352   0.600E-01    0.739E-02
DAV:   2    -0.725988166665E+02    0.10245E-03   -0.16843E-04  4848   0.661E-02    0.404E-02
DAV:   3    -0.725987689093E+02    0.47757E-04   -0.68952E-05  4300   0.417E-02    0.246E-03
DAV:   4    -0.725987683121E+02    0.59717E-06   -0.85572E-07  3148   0.548E-03
   2 F= -.72598768E+02 E0= -.72598768E+02  d E =-.163949E-01  mag=     0.0000
       N       E                     dE             d eps       ncg     rms          rms(c)
DAV:   1    -0.726412806570E+02   -0.42512E-01   -0.80758E-02  4268   0.179E+00    0.221E-01
DAV:   2    -0.726403798094E+02    0.90085E-03   -0.14940E-03  4812   0.196E-01    0.121E-01
DAV:   3    -0.726399677037E+02    0.41211E-03   -0.61613E-04  4220   0.124E-01    0.731E-03
DAV:   4    -0.726399647796E+02    0.29241E-05   -0.77278E-06  4620   0.156E-02    0.320E-03
DAV:   5    -0.726399633972E+02    0.13825E-05   -0.26308E-07  2516   0.422E-03    0.119E-03
DAV:   6    -0.726399632674E+02    0.12977E-06   -0.29765E-08  2336   0.157E-03
   3 F= -.72639963E+02 E0= -.72639963E+02  d E =-.575899E-01  mag=    -0.0000
       N       E                     dE             d eps       ncg     rms          rms(c)
DAV:   1    -0.726924379016E+02   -0.52475E-01   -0.31950E-01  4212   0.353E+00    0.439E-01
DAV:   2    -0.726888579967E+02    0.35799E-02   -0.58765E-03  4728   0.388E-01    0.240E-01
DAV:   3    -0.726872326947E+02    0.16253E-02   -0.24816E-03  4244   0.248E-01    0.142E-02
DAV:   4    -0.726872237317E+02    0.89630E-05   -0.30802E-05  4664   0.307E-02    0.607E-03
DAV:   5    -0.726872197687E+02    0.39631E-05   -0.10001E-06  3000   0.754E-03    0.408E-04
DAV:   6    -0.726872197730E+02   -0.43071E-08   -0.52305E-08  2264   0.158E-03
   4 F= -.72687220E+02 E0= -.72687220E+02  d E =-.104846E+00  mag=     0.0000
       N       E                     dE             d eps       ncg     rms          rms(c)
DAV:   1    -0.726684013124E+02    0.18818E-01   -0.12523E+00  4212   0.690E+00    0.868E-01
DAV:   2    -0.726541706292E+02    0.14231E-01   -0.22732E-02  4736   0.756E-01    0.475E-01
DAV:   3    -0.726477479672E+02    0.64227E-02   -0.10056E-02  4228   0.493E-01    0.274E-02
DAV:   4    -0.726477184026E+02    0.29565E-04   -0.12353E-04  4704   0.606E-02    0.119E-02
DAV:   5    -0.726477066869E+02    0.11716E-04   -0.40173E-06  4644   0.147E-02    0.783E-04
DAV:   6    -0.726477066359E+02    0.51025E-07   -0.56721E-08  2428   0.141E-03
   5 F= -.72647707E+02 E0= -.72647707E+02  d E =-.653333E-01  mag=    -0.0000
       N       E                     dE             d eps       ncg     rms          rms(c)
DAV:   1    -0.727045110285E+02   -0.56804E-01   -0.66572E-01  4276   0.509E+00    0.637E-01
DAV:   2    -0.726971382620E+02    0.73728E-02   -0.13532E-02  4664   0.576E-01    0.347E-01
DAV:   3    -0.726938031665E+02    0.33351E-02   -0.51506E-03  4212   0.356E-01    0.215E-02
DAV:   4    -0.726937914947E+02    0.11672E-04   -0.63153E-05  4712   0.440E-02    0.879E-03
DAV:   5    -0.726937896633E+02    0.18314E-05   -0.26881E-06  4292   0.115E-02    0.842E-04
DAV:   6    -0.726937896008E+02    0.62465E-07   -0.51634E-08  2240   0.132E-03
   6 F= -.72693790E+02 E0= -.72693790E+02  d E =-.111416E+00  mag=     0.0000
