PROCAR lm decomposed
# of k-points:   35         # of bands:   28         # of ions:    8

 k-point     1 :    0.00000000 0.00000000 0.00000000     weight = 0.00195313

band     1 # energy  -11.71632351 # occ.  1.00000000
 
ion      s     py     pz     px    dxy    dyz    dz2    dxz  x2-y2    tot
    1  0.070  0.000  0.000  0.000  0.000  0.000  0.000  0.000  0.000  0.070
    2  0.070  0.000  0.000  0.000  0.000  0.000  0.000  0.000  0.000  0.070
    3  0.070  0.000  0.000  0.000  0.000  0.000  0.000  0.000  0.000  0.070
    4  0.070  0.000  0.000  0.000  0.000  0.000  0.000  0.000  0.000  0.070
    5  0.070  0.000  0.000  0.000  0.000  0.000  0.000  0.000  0.000  0.070
    6  0.070  0.000  0.000  0.000  0.000  0.000  0.000  0.000  0.000  0.070
    7  0.070  0.000  0.000  0.000  0.000  0.000  0.000  0.000  0.000  0.070
    8  0.070  0.000  0.000  0.000  0.000  0.000  0.000  0.000  0.000  0.070
tot    0.558  0.000  0.000  0.000  0.000  0.000  0.000  0.000  0.000  0.558
 
band     2 # energy   -2.96412523 # occ.  1.00000000
 
ion      s     py     pz     px    dxy    dyz    dz2    dxz  x2-y2    tot
    1  0.293  0.001  0.001  0.001  0.000  0.000  0.000  0.000  0.000  0.297
    2  0.002  0.017  0.018  0.017  0.000  0.000  0.000  0.000  0.000  0.055
    3  0.021  0.017  0.018  0.017  0.000  0.000  0.000  0.000  0.000  0.074
    4  0.002  0.017  0.018  0.017  0.000  0.000  0.000  0.000  0.000  0.055
    5  0.002  0.017  0.018  0.017  0.000  0.000  0.000  0.000  0.000  0.055
    6  0.033  0.001  0.001  0.001  0.000  0.000  0.000  0.000  0.000  0.037
    7  0.032  0.001  0.001  0.001  0.000  0.000  0.000  0.000  0.000  0.036
    8  0.033  0.001  0.001  0.001  0.000  0.000  0.000  0.000  0.000  0.037
tot    0.419  0.075  0.076  0.075  0.000  0.000  0.000  0.000  0.000  0.645
 
band     3 # energy   -2.96406394 # occ.  1.00000000
 
ion      s     py     pz     px    dxy    dyz    dz2    dxz  x2-y2    tot
    1  0.000  0.027  0.000  0.027  0.000  0.000  0.000  0.000  0.000  0.054
    2  0.199  0.001  0.000  0.001  0.000  0.000  0.000  0.000  0.000  0.202
    3  0.000  0.001  0.000  0.001  0.000  0.000  0.000  0.000  0.000  0.003
    4  0.000  0.001  0.000  0.001  0.000  0.000  0.000  0.000  0.000  0.003
    5  0.199  0.001  0.000  0.001  0.000  0.000  0.000  0.000  0.000  0.202
    6  0.010  0.027  0.000  0.027  0.000  0.000  0.000  0.000  0.000  0.064
    7  0.000  0.027  0.000  0.027  0.000  0.000  0.000  0.000  0.000  0.054
    8  0.010  0.027  0.000  0.027  0.000  0.000  0.000  0.000  0.000  0.064
tot    0.419  0.113  0.000  0.113  0.000  0.000  0.000  0.000  0.000  0.645
 
band     4 # energy   -2.96406350 # occ.  1.00000000
 
ion      s     py     pz     px    dxy    dyz    dz2    dxz  x2-y2    tot
    1  0.000  0.010  0.034  0.010  0.000  0.000  0.000  0.000  0.000  0.054
    2  0.062  0.000  0.002  0.000  0.000  0.000  0.000  0.000  0.000  0.065
    3  0.001  0.000  0.002  0.000  0.000  0.000  0.000  0.000  0.000  0.003
    4  0.272  0.000  0.002  0.000  0.000  0.000  0.000  0.000  0.000  0.275
    5  0.062  0.000  0.002  0.000  0.000  0.000  0.000  0.000  0.000  0.065
    6  0.004  0.010  0.034  0.010  0.000  0.000  0.000  0.000  0.000  0.057
    7  0.014  0.010  0.034  0.010  0.000  0.000  0.000  0.000  0.000  0.067
    8  0.004  0.010  0.034  0.010  0.000  0.000  0.000  0.000  0.000  0.057
tot    0.419  0.042  0.143  0.042  0.000  0.000  0.000  0.000  0.000  0.645
 
band     5 # energy   -2.96405491 # occ.  1.00000000
 
ion      s     py     pz     px    dxy    dyz    dz2    dxz  x2-y2    tot
    1  0.021  0.016  0.020  0.016  0.000  0.000  0.000  0.000  0.000  0.074
    2  0.036  0.001  0.001  0.001  0.000  0.000  0.000  0.000  0.000  0.040
    3  0.292  0.001  0.001  0.001  0.000  0.000  0.000  0.000  0.000  0.296
    4  0.025  0.001  0.001  0.001  0.000  0.000  0.000  0.000  0.000  0.029
    5  0.036  0.001  0.001  0.001  0.000  0.000  0.000  0.000  0.000  0.040
    6  0.002  0.016  0.020  0.016  0.000  0.000  0.000  0.000  0.000  0.055
    7  0.003  0.016  0.020  0.016  0.000  0.000  0.000  0.000  0.000  0.055
    8  0.002  0.016  0.020  0.016  0.000  0.000  0.000  0.000  0.000  0.055
tot    0.419  0.071  0.083  0.071  0.000  0.000  0.000  0.000  0.000  0.645
 
band     6 # energy   -2.96398280 # occ.  1.00000000
 
ion      s     py     pz     px    dxy    dyz    dz2    dxz  x2-y2    tot
    1  0.000  0.000  0.002  0.000  0.000  0.000  0.000  0.000  0.000  0.003
    2  0.004  0.009  0.036  0.009  0.000  0.000  0.000  0.000  0.000  0.057
    3  0.000  0.009  0.036  0.009  0.000  0.000  0.000  0.000  0.000  0.054
    4  0.014  0.009  0.036  0.009  0.000  0.000  0.000  0.000  0.000  0.068
    5  0.004  0.009  0.036  0.009  0.000  0.000  0.000  0.000  0.000  0.057
    6  0.066  0.000  0.002  0.000  0.000  0.000  0.000  0.000  0.000  0.069
    7  0.266  0.000  0.002  0.000  0.000  0.000  0.000  0.000  0.000  0.269
    8  0.066  0.000  0.002  0.000  0.000  0.000  0.000  0.000  0.000  0.069
tot    0.419  0.038  0.150  0.038  0.000  0.000  0.000  0.000  0.000  0.645
 
band     7 # energy   -2.96398235 # occ.  1.00000000
 
ion      s     py     pz     px    dxy    dyz    dz2    dxz  x2-y2    tot
    1  0.000  0.001  0.000  0.001  0.000  0.000  0.000  0.000  0.000  0.003
    2  0.010  0.027  0.000  0.027  0.000  0.000  0.000  0.000  0.000  0.064
    3  0.000  0.027  0.000  0.027  0.000  0.000  0.000  0.000  0.000  0.054
    4  0.000  0.027  0.000  0.027  0.000  0.000  0.000  0.000  0.000  0.054
    5  0.010  0.027  0.000  0.027  0.000  0.000  0.000  0.000  0.000  0.064
    6  0.199  0.001  0.000  0.001  0.000  0.000  0.000  0.000  0.000  0.202
    7  0.000  0.001  0.000  0.001  0.000  0.000  0.000  0.000  0.000  0.003
    8  0.199  0.001  0.000  0.001  0.000  0.000  0.000  0.000  0.000  0.202
tot    0.419  0.113  0.000  0.113  0.000  0.000  0.000  0.000  0.000  0.645
 
band     8 # energy    3.51463971 # occ.  1.00000000
 
ion      s     py     pz     px    dxy    dyz    dz2    dxz  x2-y2    tot
    1  0.000  0.081  0.000  0.081  0.000  0.000  0.000  0.000  0.000  0.162
    2  0.000  0.033  0.068  0.017  0.000  0.000  0.000  0.000  0.000  0.117
    3  0.000  0.033  0.000  0.033  0.000  0.000  0.000  0.000  0.000  0.065
    4  0.000  0.017  0.000  0.017  0.000  0.000  0.000  0.000  0.000  0.033
    5  0.000  0.017  0.068  0.033  0.000  0.000  0.000  0.000  0.000  0.117
    6  0.000  0.001  0.003  0.081  0.000  0.000  0.000  0.000  0.000  0.084
    7  0.000  0.001  0.000  0.001  0.000  0.000  0.000  0.000  0.000  0.001
    8  0.000  0.081  0.003  0.001  0.000  0.000  0.000  0.000  0.000  0.084
tot    0.000  0.262  0.141  0.262  0.000  0.000  0.000  0.000  0.000  0.664
 
band     9 # energy    3.51464017 # occ.  1.00000000
 
ion      s     py     pz     px    dxy    dyz    dz2    dxz  x2-y2    tot
    1  0.000  0.029  0.104  0.029  0.000  0.000  0.000  0.000  0.000  0.162
    2  0.000  0.010  0.000  0.050  0.000  0.000  0.000  0.000  0.000  0.060
    3  0.000  0.010  0.046  0.010  0.000  0.000  0.000  0.000  0.000  0.066
    4  0.000  0.050  0.046  0.050  0.000  0.000  0.000  0.000  0.000  0.146
    5  0.000  0.050  0.000  0.010  0.000  0.000  0.000  0.000  0.000  0.060
    6  0.000  0.002  0.000  0.029  0.000  0.000  0.000  0.000  0.000  0.031
    7  0.000  0.002  0.104  0.002  0.000  0.000  0.000  0.000  0.000  0.109
    8  0.000  0.029  0.000  0.002  0.000  0.000  0.000  0.000  0.000  0.031
tot    0.000  0.181  0.302  0.181  0.000  0.000  0.000  0.000  0.000  0.664
 
band    10 # energy    3.51466202 # occ.  1.00000000
 
ion      s     py     pz     px    dxy    dyz    dz2    dxz  x2-y2    tot
    1  0.000  0.054  0.059  0.054  0.000  0.000  0.000  0.000  0.000  0.166
    2  0.000  0.056  0.000  0.000  0.000  0.000  0.000  0.000  0.000  0.056
    3  0.000  0.056  0.054  0.056  0.000  0.000  0.000  0.000  0.000  0.166
    4  0.000  0.000  0.054  0.000  0.000  0.000  0.000  0.000  0.000  0.054
    5  0.000  0.000  0.000  0.056  0.000  0.000  0.000  0.000  0.000  0.056
    6  0.000  0.000  0.000  0.054  0.000  0.000  0.000  0.000  0.000  0.054
    7  0.000  0.000  0.059  0.000  0.000  0.000  0.000  0.000  0.000  0.059
    8  0.000  0.054  0.000  0.000  0.000  0.000  0.000  0.000  0.000  0.054
tot    0.000  0.220  0.225  0.220  0.000  0.000  0.000  0.000  0.000  0.664
 
band    11 # energy    3.51469316 # occ.  1.00000000
 
ion      s     py     pz     px    dxy    dyz    dz2    dxz  x2-y2    tot
    1  0.000  0.000  0.000  0.000  0.000  0.000  0.000  0.000  0.000  0.000
    2  0.000  0.000  0.057  0.054  0.000  0.000  0.000  0.000  0.000  0.111
    3  0.000  0.000  0.000  0.000  0.000  0.000  0.000  0.000  0.000  0.000
    4  0.000  0.054  0.000  0.054  0.000  0.000  0.000  0.000  0.000  0.109
    5  0.000  0.054  0.057  0.000  0.000  0.000  0.000  0.000  0.000  0.111
    6  0.000  0.057  0.052  0.000  0.000  0.000  0.000  0.000  0.000  0.109
    7  0.000  0.057  0.000  0.057  0.000  0.000  0.000  0.000  0.000  0.114
    8  0.000  0.000  0.052  0.057  0.000  0.000  0.000  0.000  0.000  0.109
tot    0.000  0.223  0.218  0.223  0.000  0.000  0.000  0.000  0.000  0.664
 
band    12 # energy    3.51471499 # occ.  1.00000000
 
ion      s     py     pz     px    dxy    dyz    dz2    dxz  x2-y2    tot
    1  0.000  0.001  0.003  0.001  0.000  0.000  0.000  0.000  0.000  0.004
    2  0.000  0.017  0.000  0.033  0.000  0.000  0.000  0.000  0.000  0.050
    3  0.000  0.017  0.066  0.017  0.000  0.000  0.000  0.000  0.000  0.100
    4  0.000  0.033  0.066  0.033  0.000  0.000  0.000  0.000  0.000  0.132
    5  0.000  0.033  0.000  0.017  0.000  0.000  0.000  0.000  0.000  0.050
    6  0.000  0.081  0.000  0.001  0.000  0.000  0.000  0.000  0.000  0.082
    7  0.000  0.081  0.003  0.081  0.000  0.000  0.000  0.000  0.000  0.164
    8  0.000  0.001  0.000  0.081  0.000  0.000  0.000  0.000  0.000  0.082
tot    0.000  0.263  0.137  0.263  0.000  0.000  0.000  0.000  0.000  0.664
 
band    13 # energy    3.51471548 # occ.  1.00000000
 
ion      s     py     pz     px    dxy    dyz    dz2    dxz  x2-y2    tot
    1  0.000  0.002  0.000  0.002  0.000  0.000  0.000  0.000  0.000  0.004
    2  0.000  0.050  0.041  0.012  0.000  0.000  0.000  0.000  0.000  0.104
    3  0.000  0.050  0.000  0.050  0.000  0.000  0.000  0.000  0.000  0.101
    4  0.000  0.012  0.000  0.012  0.000  0.000  0.000  0.000  0.000  0.024
    5  0.000  0.012  0.041  0.050  0.000  0.000  0.000  0.000  0.000  0.104
    6  0.000  0.025  0.111  0.002  0.000  0.000  0.000  0.000  0.000  0.139
    7  0.000  0.025  0.000  0.025  0.000  0.000  0.000  0.000  0.000  0.051
    8  0.000  0.002  0.111  0.025  0.000  0.000  0.000  0.000  0.000  0.139
tot    0.000  0.179  0.305  0.179  0.000  0.000  0.000  0.000  0.000  0.664
 
band    14 # energy    9.86702815 # occ.  1.00000000
 
ion      s     py     pz     px    dxy    dyz    dz2    dxz  x2-y2    tot
    1  0.000  0.040  0.025  0.030  0.000  0.000  0.000  0.000  0.000  0.095
    2  0.000  0.040  0.025  0.030  0.000  0.000  0.000  0.000  0.000  0.095
    3  0.000  0.040  0.025  0.030  0.000  0.000  0.000  0.000  0.000  0.095
    4  0.000  0.040  0.025  0.030  0.000  0.000  0.000  0.000  0.000  0.095
    5  0.000  0.040  0.025  0.030  0.000  0.000  0.000  0.000  0.000  0.095
    6  0.000  0.040  0.025  0.030  0.000  0.000  0.000  0.000  0.000  0.095
    7  0.000  0.040  0.025  0.030  0.000  0.000  0.000  0.000  0.000  0.095
    8  0.000  0.040  0.025  0.030  0.000  0.000  0.000  0.000  0.000  0.095
tot    0.000  0.323  0.201  0.237  0.000  0.000  0.000  0.000  0.000  0.761
 
band    15 # energy    9.86702815 # occ.  1.00000000
 
ion      s     py     pz     px    dxy    dyz    dz2    dxz  x2-y2    tot
    1  0.000  0.023  0.038  0.034  0.000  0.000  0.000  0.000  0.000  0.095
    2  0.000  0.023  0.038  0.034  0.000  0.000  0.000  0.000  0.000  0.095
    3  0.000  0.023  0.038  0.034  0.000  0.000  0.000  0.000  0.000  0.095
    4  0.000  0.023  0.038  0.034  0.000  0.000  0.000  0.000  0.000  0.095
    5  0.000  0.023  0.038  0.034  0.000  0.000  0.000  0.000  0.000  0.095
    6  0.000  0.023  0.038  0.034  0.000  0.000  0.000  0.000  0.000  0.095
    7  0.000  0.023  0.038  0.034  0.000  0.000  0.000  0.000  0.000  0.095
    8  0.000  0.023  0.038  0.034  0.000  0.000  0.000  0.000  0.000  0.095
tot    0.000  0.184  0.307  0.270  0.000  0.000  0.000  0.000  0.000  0.761
 
band    16 # energy    9.86713928 # occ.  1.00000000
 
ion      s     py     pz     px    dxy    dyz    dz2    dxz  x2-y2    tot
    1  0.000  0.032  0.032  0.032  0.000  0.000  0.000  0.000  0.000  0.095
    2  0.000  0.032  0.032  0.032  0.000  0.000  0.000  0.000  0.000  0.095
    3  0.000  0.032  0.032  0.032  0.000  0.000  0.000  0.000  0.000  0.095
    4  0.000  0.032  0.032  0.032  0.000  0.000  0.000  0.000  0.000  0.095
    5  0.000  0.032  0.032  0.032  0.000  0.000  0.000  0.000  0.000  0.095
    6  0.000  0.032  0.032  0.032  0.000  0.000  0.000  0.000  0.000  0.095
    7  0.000  0.032  0.032  0.032  0.000  0.000  0.000  0.000  0.000  0.095
    8  0.000  0.032  0.032  0.032  0.000  0.000  0.000  0.000  0.000  0.095
tot    0.000  0.254  0.254  0.254  0.000  0.000  0.000  0.000  0.000  0.761
 
band    17 # energy   14.62554555 # occ.  0.00000000
 
ion      s     py     pz     px    dxy    dyz    dz2    dxz  x2-y2    tot
    1  0.000  0.005  0.000  0.005  0.000  0.000  0.000  0.000  0.000  0.009
    2  0.043  0.008  0.000  0.008  0.000  0.000  0.000  0.000  0.000  0.059
    3  0.000  0.008  0.000  0.008  0.000  0.000  0.000  0.000  0.000  0.016
    4  0.000  0.008  0.000  0.008  0.000  0.000  0.000  0.000  0.000  0.016
    5  0.043  0.008  0.000  0.008  0.000  0.000  0.000  0.000  0.000  0.059
    6  0.075  0.005  0.000  0.005  0.000  0.000  0.000  0.000  0.000  0.085
    7  0.000  0.005  0.000  0.005  0.000  0.000  0.000  0.000  0.000  0.009
    8  0.075  0.005  0.000  0.005  0.000  0.000  0.000  0.000  0.000  0.085
tot    0.236  0.051  0.000  0.051  0.000  0.000  0.000  0.000  0.000  0.339
 
band    18 # energy   14.62554567 # occ.  0.00000000
 
ion      s     py     pz     px    dxy    dyz    dz2    dxz  x2-y2    tot
    1  0.000  0.002  0.007  0.002  0.000  0.000  0.000  0.000  0.000  0.010
    2  0.015  0.003  0.011  0.003  0.000  0.000  0.000  0.000  0.000  0.031
    3  0.000  0.003  0.011  0.003  0.000  0.000  0.000  0.000  0.000  0.016
    4  0.059  0.003  0.011  0.003  0.000  0.000  0.000  0.000  0.000  0.075
    5  0.015  0.003  0.011  0.003  0.000  0.000  0.000  0.000  0.000  0.031
    6  0.024  0.002  0.007  0.002  0.000  0.000  0.000  0.000  0.000  0.034
    7  0.098  0.002  0.007  0.002  0.000  0.000  0.000  0.000  0.000  0.108
    8  0.024  0.002  0.007  0.002  0.000  0.000  0.000  0.000  0.000  0.034
tot    0.236  0.017  0.069  0.017  0.000  0.000  0.000  0.000  0.000  0.339
 
band    19 # energy   14.62556380 # occ.  0.00000000
 
ion      s     py     pz     px    dxy    dyz    dz2    dxz  x2-y2    tot
    1  0.003  0.008  0.009  0.008  0.000  0.000  0.000  0.000  0.000  0.029
    2  0.020  0.000  0.000  0.000  0.000  0.000  0.000  0.000  0.000  0.020
    3  0.174  0.000  0.000  0.000  0.000  0.000  0.000  0.000  0.000  0.174
    4  0.018  0.000  0.000  0.000  0.000  0.000  0.000  0.000  0.000  0.019
    5  0.020  0.000  0.000  0.000  0.000  0.000  0.000  0.000  0.000  0.020
    6  0.000  0.008  0.009  0.008  0.000  0.000  0.000  0.000  0.000  0.025
    7  0.001  0.008  0.009  0.008  0.000  0.000  0.000  0.000  0.000  0.026
    8  0.000  0.008  0.009  0.008  0.000  0.000  0.000  0.000  0.000  0.025
tot    0.236  0.034  0.035  0.034  0.000  0.000  0.000  0.000  0.000  0.339
 
band    20 # energy   14.62557791 # occ.  0.00000000
 
ion      s     py     pz     px    dxy    dyz    dz2    dxz  x2-y2    tot
    1  0.000  0.003  0.010  0.003  0.000  0.000  0.000  0.000  0.000  0.016
    2  0.024  0.002  0.006  0.002  0.000  0.000  0.000  0.000  0.000  0.033
    3  0.000  0.002  0.006  0.002  0.000  0.000  0.000  0.000  0.000  0.010
    4  0.100  0.002  0.006  0.002  0.000  0.000  0.000  0.000  0.000  0.110
    5  0.024  0.002  0.006  0.002  0.000  0.000  0.000  0.000  0.000  0.033
    6  0.015  0.003  0.010  0.003  0.000  0.000  0.000  0.000  0.000  0.031
    7  0.059  0.003  0.010  0.003  0.000  0.000  0.000  0.000  0.000  0.075
    8  0.015  0.003  0.010  0.003  0.000  0.000  0.000  0.000  0.000  0.031
tot    0.236  0.018  0.067  0.018  0.000  0.000  0.000  0.000  0.000  0.339
 
band    21 # energy   14.62557804 # occ.  0.00000000
 
ion      s     py     pz     px    dxy    dyz    dz2    dxz  x2-y2    tot
    1  0.000  0.008  0.000  0.008  0.000  0.000  0.000  0.000  0.000  0.016
    2  0.075  0.005  0.000  0.005  0.000  0.000  0.000  0.000  0.000  0.085
    3  0.000  0.005  0.000  0.005  0.000  0.000  0.000  0.000  0.000  0.009
    4  0.000  0.005  0.000  0.005  0.000  0.000  0.000  0.000  0.000  0.009
    5  0.075  0.005  0.000  0.005  0.000  0.000  0.000  0.000  0.000  0.085
    6  0.043  0.008  0.000  0.008  0.000  0.000  0.000  0.000  0.000  0.059
    7  0.000  0.008  0.000  0.008  0.000  0.000  0.000  0.000  0.000  0.016
    8  0.043  0.008  0.000  0.008  0.000  0.000  0.000  0.000  0.000  0.059
tot    0.236  0.051  0.000  0.051  0.000  0.000  0.000  0.000  0.000  0.339
 
band    22 # energy   14.62567655 # occ.  0.00000000
 
ion      s     py     pz     px    dxy    dyz    dz2    dxz  x2-y2    tot
    1  0.174  0.000  0.000  0.000  0.000  0.000  0.000  0.000  0.000  0.174
    2  0.000  0.008  0.008  0.008  0.000  0.000  0.000  0.000  0.000  0.026
    3  0.003  0.008  0.008  0.008  0.000  0.000  0.000  0.000  0.000  0.029
    4  0.000  0.008  0.008  0.008  0.000  0.000  0.000  0.000  0.000  0.026
    5  0.000  0.008  0.008  0.008  0.000  0.000  0.000  0.000  0.000  0.026
    6  0.019  0.000  0.000  0.000  0.000  0.000  0.000  0.000  0.000  0.020
    7  0.019  0.000  0.000  0.000  0.000  0.000  0.000  0.000  0.000  0.019
    8  0.019  0.000  0.000  0.000  0.000  0.000  0.000  0.000  0.000  0.020
tot    0.236  0.034  0.035  0.034  0.000  0.000  0.000  0.000  0.000  0.339
 
band    23 # energy   15.47204421 # occ.  0.00000000
 
ion      s     py     pz     px    dxy    dyz    dz2    dxz  x2-y2    tot
    1  0.000  0.025  0.025  0.025  0.000  0.000  0.000  0.000  0.000  0.074
    2  0.000  0.025  0.025  0.025  0.000  0.000  0.000  0.000  0.000  0.075
    3  0.000  0.025  0.025  0.025  0.000  0.000  0.000  0.000  0.000  0.075
    4  0.000  0.025  0.025  0.025  0.000  0.000  0.000  0.000  0.000  0.075
    5  0.000  0.025  0.025  0.025  0.000  0.000  0.000  0.000  0.000  0.075
    6  0.000  0.025  0.025  0.025  0.000  0.000  0.000  0.000  0.000  0.075
    7  0.000  0.025  0.025  0.025  0.000  0.000  0.000  0.000  0.000  0.075
    8  0.000  0.025  0.025  0.025  0.000  0.000  0.000  0.000  0.000  0.075
tot    0.000  0.199  0.199  0.199  0.000  0.000  0.000  0.000  0.000  0.596
 
band    24 # energy   15.47212295 # occ.  0.00000000
 
ion      s     py     pz     px    dxy    dyz    dz2    dxz  x2-y2    tot
    1  0.000  0.037  0.000  0.037  0.000  0.000  0.000  0.000  0.000  0.074
    2  0.000  0.037  0.000  0.037  0.000  0.000  0.000  0.000  0.000  0.075
    3  0.000  0.037  0.000  0.037  0.000  0.000  0.000  0.000  0.000  0.074
    4  0.000  0.037  0.000  0.037  0.000  0.000  0.000  0.000  0.000  0.074
    5  0.000  0.037  0.000  0.037  0.000  0.000  0.000  0.000  0.000  0.075
    6  0.000  0.037  0.000  0.037  0.000  0.000  0.000  0.000  0.000  0.075
    7  0.000  0.037  0.000  0.037  0.000  0.000  0.000  0.000  0.000  0.075
    8  0.000  0.037  0.000  0.037  0.000  0.000  0.000  0.000  0.000  0.075
tot    0.000  0.298  0.000  0.298  0.000  0.000  0.000  0.000  0.000  0.596
 
band    25 # energy   15.47212295 # occ.  0.00000000
 
ion      s     py     pz     px    dxy    dyz    dz2    dxz  x2-y2    tot
    1  0.000  0.012  0.050  0.012  0.000  0.000  0.000  0.000  0.000  0.074
    2  0.000  0.012  0.050  0.012  0.000  0.000  0.000  0.000  0.000  0.074
    3  0.000  0.012  0.050  0.012  0.000  0.000  0.000  0.000  0.000  0.074
    4  0.000  0.012  0.050  0.012  0.000  0.000  0.000  0.000  0.000  0.075
    5  0.000  0.012  0.050  0.012  0.000  0.000  0.000  0.000  0.000  0.074
    6  0.000  0.012  0.050  0.012  0.000  0.000  0.000  0.000  0.000  0.075
    7  0.000  0.012  0.050  0.012  0.000  0.000  0.000  0.000  0.000  0.075
    8  0.000  0.012  0.050  0.012  0.000  0.000  0.000  0.000  0.000  0.075
tot    0.000  0.099  0.397  0.099  0.000  0.000  0.000  0.000  0.000  0.596
 
band    26 # energy   23.31034054 # occ.  0.00000000
 
ion      s     py     pz     px    dxy    dyz    dz2    dxz  x2-y2    tot
    1  0.098  0.000  0.000  0.000  0.000  0.000  0.000  0.000  0.000  0.098
    2  0.098  0.000  0.000  0.000  0.000  0.000  0.000  0.000  0.000  0.098
    3  0.098  0.000  0.000  0.000  0.000  0.000  0.000  0.000  0.000  0.098
    4  0.098  0.000  0.000  0.000  0.000  0.000  0.000  0.000  0.000  0.098
    5  0.098  0.000  0.000  0.000  0.000  0.000  0.000  0.000  0.000  0.098
    6  0.098  0.000  0.000  0.000  0.000  0.000  0.000  0.000  0.000  0.098
    7  0.098  0.000  0.000  0.000  0.000  0.000  0.000  0.000  0.000  0.098
    8  0.098  0.000  0.000  0.000  0.000  0.000  0.000  0.000  0.000  0.098
tot    0.786  0.000  0.000  0.000  0.000  0.000  0.000  0.000  0.000  0.786
 
band    27 # energy   26.84767383 # occ.  0.00000000
 
ion      s     py     pz     px    dxy    dyz    dz2    dxz  x2-y2    tot
    1  0.000  0.000  0.004  0.062  0.000  0.000  0.000  0.000  0.000  0.066
    2  0.000  0.001  0.124  0.021  0.000  0.000  0.000  0.000  0.000  0.147
    3  0.000  0.001  0.055  0.002  0.000  0.000  0.000  0.000  0.000  0.057
    4  0.000  0.008  0.055  0.021  0.000  0.000  0.000  0.000  0.000  0.084
    5  0.000  0.008  0.124  0.002  0.000  0.000  0.000  0.000  0.000  0.134
    6  0.000  0.019  0.012  0.062  0.000  0.000  0.000  0.000  0.000  0.092
    7  0.000  0.019  0.004  0.114  0.000  0.000  0.000  0.000  0.000  0.137
    8  0.000  0.000  0.012  0.114  0.000  0.000  0.000  0.000  0.000  0.126
tot    0.000  0.055  0.391  0.398  0.000  0.000  0.000  0.000  0.000  0.844
 
band    28 # energy   26.84767943 # occ.  0.00000000
 
ion      s     py     pz     px    dxy    dyz    dz2    dxz  x2-y2    tot
    1  0.000  0.012  0.069  0.052  0.000  0.000  0.000  0.000  0.000  0.132
    2  0.000  0.105  0.001  0.005  0.000  0.000  0.000  0.000  0.000  0.111
    3  0.000  0.105  0.014  0.029  0.000  0.000  0.000  0.000  0.000  0.148
    4  0.000  0.057  0.014  0.005  0.000  0.000  0.000  0.000  0.000  0.076
    5  0.000  0.057  0.001  0.029  0.000  0.000  0.000  0.000  0.000  0.087
    6  0.000  0.020  0.032  0.052  0.000  0.000  0.000  0.000  0.000  0.104
    7  0.000  0.020  0.069  0.026  0.000  0.000  0.000  0.000  0.000  0.115
    8  0.000  0.012  0.032  0.026  0.000  0.000  0.000  0.000  0.000  0.070
tot    0.000  0.388  0.233  0.224  0.000  0.000  0.000  0.000  0.000  0.844
 

 k-point     2 :    0.12500000 0.00000000 0.00000000     weight = 0.01171875

band     1 # energy  -11.57143892 # occ.  1.00000000
 
ion      s     py     pz     px    dxy    dyz    dz2    dxz  x2-y2    tot
    1  0.069  0.000  0.000  0.000  0.000  0.000  0.000  0.000  0.000  0.070
    2  0.069  0.000  0.000  0.000  0.000  0.000  0.000  0.000  0.000  0.070
    3  0.069  0.000  0.000  0.000  0.000  0.000  0.000  0.000  0.000  0.070
    4  0.069  0.000  0.000  0.000  0.000  0.000  0.000  0.000  0.000  0.070
    5  0.069  0.000  0.000  0.000  0.000  0.000  0.000  0.000  0.000  0.070
    6  0.069  0.000  0.000  0.000  0.000  0.000  0.000  0.000  0.000  0.070
    7  0.069  0.000  0.000  0.000  0.000  0.000  0.000  0.000  0.000  0.070
    8  0.069  0.000  0.000  0.000  0.000  0.000  0.000  0.000  0.000  0.070
tot    0.556  0.000  0.000  0.004  0.000  0.000  0.000  0.000  0.000  0.559
 
band     2 # energy   -4.89719722 # occ.  1.00000000
 
ion      s     py     pz     px    dxy    dyz    dz2    dxz  x2-y2    tot
    1  0.056  0.000  0.000  0.022  0.000  0.000  0.000  0.000  0.000  0.078
    2  0.056  0.000  0.000  0.022  0.000  0.000  0.000  0.000  0.000  0.078
    3  0.056  0.000  0.000  0.022  0.000  0.000  0.000  0.000  0.000  0.078
    4  0.056  0.000  0.000  0.022  0.000  0.000  0.000  0.000  0.000  0.078
    5  0.056  0.000  0.000  0.022  0.000  0.000  0.000  0.000  0.000  0.078
    6  0.056  0.000  0.000  0.022  0.000  0.000  0.000  0.000  0.000  0.078
    7  0.056  0.000  0.000  0.022  0.000  0.000  0.000  0.000  0.000  0.078
    8  0.056  0.000  0.000  0.022  0.000  0.000  0.000  0.000  0.000  0.078
tot    0.446  0.000  0.000  0.176  0.000  0.000  0.000  0.000  0.000  0.622
 
band     3 # energy   -2.87276751 # occ.  1.00000000
 
ion      s     py     pz     px    dxy    dyz    dz2    dxz  x2-y2    tot
    1  0.150  0.008  0.008  0.000  0.000  0.000  0.000  0.000  0.000  0.167
    2  0.000  0.020  0.020  0.000  0.000  0.000  0.000  0.000  0.000  0.040
    3  0.061  0.020  0.020  0.000  0.000  0.000  0.000  0.000  0.000  0.101
    4  0.000  0.020  0.020  0.000  0.000  0.000  0.000  0.000  0.000  0.040
    5  0.061  0.020  0.020  0.000  0.000  0.000  0.000  0.000  0.000  0.101
    6  0.150  0.008  0.008  0.000  0.000  0.000  0.000  0.000  0.000  0.167
    7  0.000  0.008  0.008  0.000  0.000  0.000  0.000  0.000  0.000  0.016
    8  0.000  0.008  0.008  0.000  0.000  0.000  0.000  0.000  0.000  0.016
tot    0.422  0.113  0.112  0.001  0.000  0.000  0.000  0.000  0.000  0.648
 
band     4 # energy   -2.87274320 # occ.  1.00000000
 
ion      s     py     pz     px    dxy    dyz    dz2    dxz  x2-y2    tot
    1  0.000  0.028  0.026  0.000  0.000  0.000  0.000  0.000  0.000  0.053
    2  0.200  0.001  0.002  0.000  0.000  0.000  0.000  0.000  0.000  0.204
    3  0.000  0.001  0.002  0.000  0.000  0.000  0.000  0.000  0.000  0.003
    4  0.200  0.001  0.002  0.000  0.000  0.000  0.000  0.000  0.000  0.204
    5  0.000  0.001  0.002  0.000  0.000  0.000  0.000  0.000  0.000  0.003
    6  0.000  0.028  0.026  0.000  0.000  0.000  0.000  0.000  0.000  0.053
    7  0.011  0.028  0.026  0.000  0.000  0.000  0.000  0.000  0.000  0.064
    8  0.011  0.028  0.026  0.000  0.000  0.000  0.000  0.000  0.000  0.064
tot    0.422  0.115  0.110  0.001  0.000  0.000  0.000  0.000  0.000  0.648
 
band     5 # energy   -2.87272755 # occ.  1.00000000
 
ion      s     py     pz     px    dxy    dyz    dz2    dxz  x2-y2    tot
    1  0.061  0.019  0.021  0.000  0.000  0.000  0.000  0.000  0.000  0.101
    2  0.000  0.008  0.008  0.000  0.000  0.000  0.000  0.000  0.000  0.016
    3  0.150  0.008  0.008  0.000  0.000  0.000  0.000  0.000  0.000  0.167
    4  0.000  0.008  0.008  0.000  0.000  0.000  0.000  0.000  0.000  0.016
    5  0.150  0.008  0.008  0.000  0.000  0.000  0.000  0.000  0.000  0.167
    6  0.061  0.019  0.021  0.000  0.000  0.000  0.000  0.000  0.000  0.101
    7  0.000  0.019  0.021  0.000  0.000  0.000  0.000  0.000  0.000  0.040
    8  0.000  0.019  0.021  0.000  0.000  0.000  0.000  0.000  0.000  0.040
tot    0.422  0.109  0.116  0.001  0.000  0.000  0.000  0.000  0.000  0.648
 
band     6 # energy   -2.87266034 # occ.  1.00000000
 
ion      s     py     pz     px    dxy    dyz    dz2    dxz  x2-y2    tot
    1  0.000  0.001  0.001  0.000  0.000  0.000  0.000  0.000  0.000  0.003
    2  0.011  0.027  0.026  0.000  0.000  0.000  0.000  0.000  0.000  0.064
    3  0.000  0.027  0.026  0.000  0.000  0.000  0.000  0.000  0.000  0.053
    4  0.011  0.027  0.026  0.000  0.000  0.000  0.000  0.000  0.000  0.064
    5  0.000  0.027  0.026  0.000  0.000  0.000  0.000  0.000  0.000  0.053
    6  0.000  0.001  0.001  0.000  0.000  0.000  0.000  0.000  0.000  0.003
    7  0.201  0.001  0.001  0.000  0.000  0.000  0.000  0.000  0.000  0.204
    8  0.201  0.001  0.001  0.000  0.000  0.000  0.000  0.000  0.000  0.204
tot    0.422  0.113  0.112  0.001  0.000  0.000  0.000  0.000  0.000  0.648
 
band     7 # energy   -0.89594253 # occ.  1.00000000
 
ion      s     py     pz     px    dxy    dyz    dz2    dxz  x2-y2    tot
    1  0.048  0.000  0.000  0.035  0.000  0.000  0.000  0.000  0.000  0.084
    2  0.048  0.000  0.000  0.035  0.000  0.000  0.000  0.000  0.000  0.084
    3  0.048  0.000  0.000  0.035  0.000  0.000  0.000  0.000  0.000  0.084
    4  0.048  0.000  0.000  0.035  0.000  0.000  0.000  0.000  0.000  0.084
    5  0.048  0.000  0.000  0.035  0.000  0.000  0.000  0.000  0.000  0.084
    6  0.048  0.000  0.000  0.035  0.000  0.000  0.000  0.000  0.000  0.084
    7  0.048  0.000  0.000  0.035  0.000  0.000  0.000  0.000  0.000  0.084
    8  0.048  0.000  0.000  0.035  0.000  0.000  0.000  0.000  0.000  0.084
tot    0.387  0.000  0.000  0.282  0.000  0.000  0.000  0.000  0.000  0.669
 
band     8 # energy    3.20366188 # occ.  1.00000000
 
ion      s     py     pz     px    dxy    dyz    dz2    dxz  x2-y2    tot
    1  0.003  0.006  0.006  0.132  0.000  0.000  0.000  0.000  0.000  0.148
    2  0.000  0.034  0.035  0.000  0.000  0.000  0.000  0.000  0.000  0.069
    3  0.001  0.034  0.035  0.024  0.000  0.000  0.000  0.000  0.000  0.094
    4  0.000  0.034  0.035  0.000  0.000  0.000  0.000  0.000  0.000  0.069
    5  0.001  0.034  0.035  0.024  0.000  0.000  0.000  0.000  0.000  0.094
    6  0.003  0.006  0.006  0.132  0.000  0.000  0.000  0.000  0.000  0.148
    7  0.000  0.006  0.006  0.000  0.000  0.000  0.000  0.000  0.000  0.013
    8  0.000  0.006  0.006  0.000  0.000  0.000  0.000  0.000  0.000  0.013
tot    0.008  0.162  0.164  0.312  0.000  0.000  0.000  0.000  0.000  0.647
 
band     9 # energy    3.20368775 # occ.  1.00000000
 
ion      s     py     pz     px    dxy    dyz    dz2    dxz  x2-y2    tot
    1  0.000  0.036  0.032  0.000  0.000  0.000  0.000  0.000  0.000  0.068
    2  0.003  0.006  0.007  0.130  0.000  0.000  0.000  0.000  0.000  0.147
    3  0.000  0.006  0.007  0.000  0.000  0.000  0.000  0.000  0.000  0.014