<?xml version="1.0" encoding="ISO-8859-1"?>
<modeling>
 <generator>
  <i name="program" type="string">vasp </i>
  <i name="version" type="string">5.4.4.18Apr17-6-g9f103f2a35  </i>
  <i name="subversion" type="string">(build Jul  5 2023 12:24:19) complex            parallel </i>
  <i name="platform" type="string">NVIDIA22.7_CrayMPICH8.1.17 </i>
  <i name="date" type="string">2023 10 16 </i>
  <i name="time" type="string">23:30:57 </i>
 </generator>
 <incar>
  <i type="string" name="PREC">accurate</i>
  <i type="int" name="ISPIN">     2</i>
  <i type="int" name="ICHARG">     0</i>
  <i type="int" name="IBRION">     2</i>
  <i name="EDIFF">      0.00000100</i>
  <i name="EDIFFG">      0.00010000</i>
  <i type="int" name="NSW">   100</i>
  <i type="int" name="ISIF">     3</i>
  <i type="int" name="ISYM">     2</i>
  <i name="SYMPREC">      0.00010000</i>
  <i name="POTIM">      0.01500000</i>
  <i type="int" name="ISMEAR">    -5</i>
  <i name="SIGMA">      0.01000000</i>
  <i type="int" name="NWRITE">     0</i>
  <i name="PSTRESS">      0.00000000</i>
  <i type="logical" name="LWAVE"> F  </i>
  <i type="logical" name="LCHARG"> F  </i>
  <i type="int" name="LORBIT">    11</i>
  <v type="int" name="KPOINT_BSE">    -1     0     0     0</v>
 </incar>
 <structure name="primitive_cell" >
  <crystal>
   <varray name="basis" >
    <v>       1.75593999       1.75593999      -0.00000702 </v>
    <v>       1.75593999      -0.00000000      -1.75594701 </v>
    <v>       0.00000000       1.75593999      -1.75594701 </v>
   </varray>
   <i name="volume">     10.82828983 </i>
   <varray name="rec_basis" >
    <v>       0.28474834       0.28474834       0.28474720 </v>
    <v>       0.28474720      -0.28474834      -0.28474720 </v>
    <v>      -0.28474834       0.28474720      -0.28474720 </v>
   </varray>
  </crystal>
  <varray name="positions" >
   <v>       0.27008605       0.24330497       0.24330497 </v>
   <v>      -0.47991595       0.49330597       0.49330597 </v>
  </varray>
 </structure>
 <varray name="primitive_index" >
  <v type="int" >        1 </v>
  <v type="int" >        2 </v>
 </varray>
 <kpoints>
  <generation param="Gamma">
   <v type="int" name="divisions">       8        8        8 </v>
   <v name="usershift">      0.00000000       0.00000000       0.00000000 </v>
   <v name="genvec1">      0.12500000       0.00000000       0.00000000 </v>
   <v name="genvec2">      0.00000000       0.12500000       0.00000000 </v>
   <v name="genvec3">      0.00000000       0.00000000       0.12500000 </v>
   <v name="shift">      0.00000000       0.00000000       0.00000000 </v>
  </generation>
  <varray name="kpointlist" >
   <v>       0.00000000       0.00000000       0.00000000 </v>
   <v>       0.12500000       0.00000000       0.00000000 </v>
   <v>       0.25000000       0.00000000       0.00000000 </v>
   <v>       0.37500000       0.00000000       0.00000000 </v>
   <v>       0.50000000       0.00000000       0.00000000 </v>
   <v>       0.12500000       0.12500000       0.00000000 </v>
   <v>       0.25000000       0.12500000       0.00000000 </v>
   <v>       0.37500000       0.12500000       0.00000000 </v>
   <v>       0.50000000       0.12500000       0.00000000 </v>
   <v>       0.25000000       0.25000000       0.00000000 </v>
   <v>       0.37500000       0.25000000       0.00000000 </v>
   <v>       0.50000000       0.25000000       0.00000000 </v>
   <v>       0.37500000       0.37500000       0.00000000 </v>
   <v>       0.50000000       0.37500000       0.00000000 </v>
   <v>       0.50000000       0.50000000       0.00000000 </v>
   <v>       0.12500000       0.12500000       0.12500000 </v>
   <v>       0.25000000       0.12500000       0.12500000 </v>
   <v>       0.37500000       0.12500000       0.12500000 </v>
   <v>       0.50000000       0.12500000       0.12500000 </v>
   <v>       0.25000000       0.25000000       0.12500000 </v>
   <v>       0.37500000       0.25000000       0.12500000 </v>
   <v>       0.50000000       0.25000000       0.12500000 </v>
   <v>       0.37500000       0.37500000       0.12500000 </v>
   <v>       0.50000000       0.37500000       0.12500000 </v>
   <v>       0.50000000       0.50000000       0.12500000 </v>
   <v>       0.25000000       0.25000000       0.25000000 </v>
   <v>       0.37500000       0.25000000       0.25000000 </v>
   <v>       0.50000000       0.25000000       0.25000000 </v>
   <v>       0.37500000       0.37500000       0.25000000 </v>
   <v>       0.50000000       0.37500000       0.25000000 </v>
   <v>       0.50000000       0.50000000       0.25000000 </v>
   <v>       0.37500000       0.37500000       0.37500000 </v>
   <v>       0.50000000       0.37500000       0.37500000 </v>
   <v>       0.50000000       0.50000000       0.37500000 </v>
   <v>       0.50000000       0.50000000       0.50000000 </v>
  </varray>
  <varray name="weights" >
   <v>       0.00195313 </v>
   <v>       0.01171875 </v>
   <v>       0.01171875 </v>
   <v>       0.01171875 </v>
   <v>       0.00585938 </v>
   <v>       0.02343750 </v>
   <v>       0.04687500 </v>
   <v>       0.04687500 </v>
   <v>       0.02343750 </v>
   <v>       0.02343750 </v>
   <v>       0.04687500 </v>
   <v>       0.02343750 </v>
   <v>       0.02343750 </v>
   <v>       0.02343750 </v>
   <v>       0.00585938 </v>
   <v>       0.01562500 </v>
   <v>       0.04687500 </v>
   <v>       0.04687500 </v>
   <v>       0.02343750 </v>
   <v>       0.04687500 </v>
   <v>       0.09375000 </v>
   <v>       0.04687500 </v>
   <v>       0.04687500 </v>
   <v>       0.04687500 </v>
   <v>       0.01171875 </v>
   <v>       0.01562500 </v>
   <v>       0.04687500 </v>
   <v>       0.02343750 </v>
   <v>       0.04687500 </v>
   <v>       0.04687500 </v>
   <v>       0.01171875 </v>
   <v>       0.01562500 </v>
   <v>       0.02343750 </v>
   <v>       0.01171875 </v>
   <v>       0.00195313 </v>
  </varray>
  <varray name="tetrahedronlist"  type="int" >
   <v type="int" >       12        1        2        2        6 </v>
   <v type="int" >       12        2        2        6        6 </v>
   <v type="int" >       12        2        6        6       16 </v>
   <v type="int" >       12        2        3        6        7 </v>
   <v type="int" >       12        2        6        6        7 </v>
   <v type="int" >       12        6        6        7       16 </v>
   <v type="int" >       12        3        6        7        7 </v>
   <v type="int" >       24        6        7        7       17 </v>
   <v type="int" >       24        6        7       16       17 </v>
   <v type="int" >       12        3        4        7        8 </v>
   <v type="int" >       12        3        7        7        8 </v>
   <v type="int" >       12        7        7        8       17 </v>
   <v type="int" >       12        4        7        8        8 </v>
   <v type="int" >       12        7        8        8       18 </v>
   <v type="int" >       12        7        8       17       18 </v>
   <v type="int" >       12        4        5        8        9 </v>
   <v type="int" >       12        4        8        8        9 </v>
   <v type="int" >       12        8        8        9       18 </v>
   <v type="int" >       12        5        8        9        9 </v>
   <v type="int" >       12        8        9        9       19 </v>
   <v type="int" >       12        8        9       18       19 </v>
   <v type="int" >       12        6        7       10       16 </v>
   <v type="int" >       12        7       10       16       17 </v>
   <v type="int" >       12       10       16       17       20 </v>
   <v type="int" >       12        7        8       11       17 </v>
   <v type="int" >       12        7       10       11       17 </v>
   <v type="int" >       12       10       11       17       20 </v>
   <v type="int" >       12        8       11       17       18 </v>
   <v type="int" >       12       11       17       18       21 </v>
   <v type="int" >       12       11       17       20       21 </v>
   <v type="int" >       12        8        9       12       18 </v>
   <v type="int" >       12        8       11       12       18 </v>
   <v type="int" >       12       11       12       18       21 </v>
   <v type="int" >       12        9       12       18       19 </v>
   <v type="int" >       12       12       18       19       22 </v>
   <v type="int" >       12       12       18       21       22 </v>
   <v type="int" >       12        8        9       11       19 </v>
   <v type="int" >       12        9       11       12       19 </v>
   <v type="int" >       12       11       12       19       22 </v>
   <v type="int" >       12        8       11       18       19 </v>
   <v type="int" >       12       11       18       19       21 </v>
   <v type="int" >       12       11       19       21       22 </v>
   <v type="int" >       12        7        8       10       18 </v>
   <v type="int" >       12        8       10       11       18 </v>
   <v type="int" >       12       10       11       18       21 </v>
   <v type="int" >       12        7       10       17       18 </v>
   <v type="int" >       12       10       17       18       20 </v>
   <v type="int" >       12       10       18       20       21 </v>
   <v type="int" >       12        7        7       10       17 </v>
   <v type="int" >       12        7       10       17       20 </v>
   <v type="int" >       12        7       16       17       17 </v>
   <v type="int" >       12        7       17       17       20 </v>
   <v type="int" >       12        2        3        6       16 </v>
   <v type="int" >       12        3        6        7       16 </v>
   <v type="int" >       12        3        7       16       17 </v>
   <v type="int" >       12       10       11       13       20 </v>
   <v type="int" >       12       11       13       20       21 </v>
   <v type="int" >       12       13       20       21       23 </v>
   <v type="int" >       12       11       12       14       21 </v>
   <v type="int" >       12       11       13       14       21 </v>
   <v type="int" >       12       13       14       21       23 </v>
   <v type="int" >       12       12       14       21       22 </v>
   <v type="int" >       12       14       21       22       24 </v>
   <v type="int" >       12       14       21       23       24 </v>
   <v type="int" >       12       11       12       13       22 </v>
   <v type="int" >       12       12       13       14       22 </v>
   <v type="int" >       12       13       14       22       24 </v>
   <v type="int" >       12       11       13       21       22 </v>
   <v type="int" >       12       13       21       22       23 </v>
   <v type="int" >       12       13       22       23       24 </v>
   <v type="int" >       12       10       11       11       21 </v>
   <v type="int" >       12       11       11       13       21 </v>
   <v type="int" >       12       11       13       21       23 </v>
   <v type="int" >       12       10       11       20       21 </v>
   <v type="int" >       12       11       20       21       21 </v>
   <v type="int" >       12       11       21       21       23 </v>
   <v type="int" >       12        7        8       10       20 </v>
   <v type="int" >       12        8       10       11       20 </v>
   <v type="int" >       12        8       11       20       21 </v>
   <v type="int" >       12        7        8       17       20 </v>
   <v type="int" >       12        8       17       18       20 </v>
   <v type="int" >       12        8       18       20       21 </v>
   <v type="int" >       12        3        4        7       17 </v>
   <v type="int" >       12        4        7        8       17 </v>
   <v type="int" >       12        4        8       17       18 </v>
   <v type="int" >       12       13       14       15       23 </v>
   <v type="int" >       12       14       15       23       24 </v>
   <v type="int" >       12       15       23       24       25 </v>
   <v type="int" >       12       13       14       14       24 </v>
   <v type="int" >       12       14       14       15       24 </v>
   <v type="int" >       12       14       15       24       25 </v>
   <v type="int" >       12       13       14       23       24 </v>
   <v type="int" >       12       14       23       24       24 </v>
   <v type="int" >       12       14       24       24       25 </v>
   <v type="int" >       12       11       12       13       23 </v>
   <v type="int" >       12       12       13       14       23 </v>
   <v type="int" >       12       12       14       23       24 </v>
   <v type="int" >       12       11       12       21       23 </v>
   <v type="int" >       12       12       21       22       23 </v>
   <v type="int" >       12       12       22       23       24 </v>
   <v type="int" >       12        8        9       11       21 </v>
   <v type="int" >       12        9       11       12       21 </v>
   <v type="int" >       12        9       12       21       22 </v>
   <v type="int" >       12        8        9       18       21 </v>
   <v type="int" >       12        9       18       19       21 </v>
   <v type="int" >       12        9       19       21       22 </v>
   <v type="int" >       12        4        5        8       18 </v>
   <v type="int" >       12        5        8        9       18 </v>
   <v type="int" >       12        5        9       18       19 </v>
   <v type="int" >       12       13       14       15       25 </v>
   <v type="int" >       12       13       14       24       25 </v>
   <v type="int" >       12       13       23       24       25 </v>
   <v type="int" >       12       11       12       14       24 </v>
   <v type="int" >       12       11       13       14       24 </v>
   <v type="int" >       12       11       13       23       24 </v>
   <v type="int" >       12       11       12       22       24 </v>
   <v type="int" >       12       11       21       22       24 </v>
   <v type="int" >       12       11       21       23       24 </v>
   <v type="int" >       12        8        9       12       22 </v>
   <v type="int" >       12        8       11       12       22 </v>
   <v type="int" >       12        8       11       21       22 </v>
   <v type="int" >       12        8        9       19       22 </v>
   <v type="int" >       12        8       18       19       22 </v>
   <v type="int" >       12        8       18       21       22 </v>
   <v type="int" >       12        4        5        9       19 </v>
   <v type="int" >       12        4        8        9       19 </v>
   <v type="int" >       12        4        8       18       19 </v>
   <v type="int" >       12       10       11       13       23 </v>
   <v type="int" >       12       10       11       21       23 </v>
   <v type="int" >       12       10       20       21       23 </v>
   <v type="int" >       12        7        8       11       21 </v>
   <v type="int" >       12        7       10       11       21 </v>
   <v type="int" >       12        7       10       20       21 </v>
   <v type="int" >       12        7        8       18       21 </v>
   <v type="int" >       12        7       17       18       21 </v>
   <v type="int" >       12        7       17       20       21 </v>
   <v type="int" >       12        3        4        8       18 </v>
   <v type="int" >       12        3        7        8       18 </v>
   <v type="int" >       12        3        7       17       18 </v>
   <v type="int" >       12        6        7       10       20 </v>
   <v type="int" >       12        6        7       17       20 </v>
   <v type="int" >       12        6       16       17       20 </v>
   <v type="int" >       12        2        3        7       17 </v>
   <v type="int" >       12        2        6        7       17 </v>
   <v type="int" >       12        2        6       16       17 </v>
   <v type="int" >       12        1        2        6       16 </v>
   <v type="int" >       12       16       17       17       20 </v>
   <v type="int" >       12       17       17       20       20 </v>
   <v type="int" >       12       17       20       20       26 </v>
   <v type="int" >       12       17       18       20       21 </v>
   <v type="int" >       12       17       20       20       21 </v>
   <v type="int" >       12       20       20       21       26 </v>
   <v type="int" >       12       18       20       21       21 </v>
   <v type="int" >       24       20       21       21       27 </v>
   <v type="int" >       24       20       21       26       27 </v>
   <v type="int" >       12       18       19       21       22 </v>
   <v type="int" >       12       18       21       21       22 </v>
   <v type="int" >       12       21       21       22       27 </v>
   <v type="int" >       12       19       21       22       22 </v>
   <v type="int" >       12       21       22       22       28 </v>
   <v type="int" >       12       21       22       27       28 </v>
   <v type="int" >       12       20       21       23       26 </v>
   <v type="int" >       12       21       23       26       27 </v>
   <v type="int" >       12       23       26       27       29 </v>
   <v type="int" >       12       21       22       24       27 </v>
   <v type="int" >       12       21       23       24       27 </v>
   <v type="int" >       12       23       24       27       29 </v>
   <v type="int" >       12       22       24       27       28 </v>
   <v type="int" >       12       24       27       28       30 </v>
   <v type="int" >       12       24       27       29       30 </v>
   <v type="int" >       12       21       22       23       28 </v>
   <v type="int" >       12       22       23       24       28 </v>
   <v type="int" >       12       23       24       28       30 </v>
   <v type="int" >       12       21       23       27       28 </v>
   <v type="int" >       12       23       27       28       29 </v>
   <v type="int" >       12       23       28       29       30 </v>
   <v type="int" >       12       21       21       23       27 </v>
   <v type="int" >       12       21       23       27       29 </v>
   <v type="int" >       12       21       26       27       27 </v>
   <v type="int" >       12       21       27       27       29 </v>
   <v type="int" >       12       17       18       20       26 </v>
   <v type="int" >       12       18       20       21       26 </v>
   <v type="int" >       12       18       21       26       27 </v>
   <v type="int" >       12       23       24       25       29 </v>
   <v type="int" >       12       24       25       29       30 </v>
   <v type="int" >       12       25       29       30       31 </v>
   <v type="int" >       12       23       24       24       30 </v>
   <v type="int" >       12       24       24       25       30 </v>
   <v type="int" >       12       24       25       30       31 </v>
   <v type="int" >       12       23       24       29       30 </v>
   <v type="int" >       12       24       29       30       30 </v>
   <v type="int" >       12       24       30       30       31 </v>
   <v type="int" >       12       21       22       23       29 </v>
   <v type="int" >       12       22       23       24       29 </v>
   <v type="int" >       12       22       24       29       30 </v>
   <v type="int" >       12       21       22       27       29 </v>
   <v type="int" >       12       22       27       28       29 </v>
   <v type="int" >       12       22       28       29       30 </v>
   <v type="int" >       12       18       19       21       27 </v>
   <v type="int" >       12       19       21       22       27 </v>
   <v type="int" >       12       19       22       27       28 </v>
   <v type="int" >       12       23       24       25       31 </v>
   <v type="int" >       12       23       24       30       31 </v>
   <v type="int" >       12       23       29       30       31 </v>
   <v type="int" >       12       21       22       24       30 </v>
   <v type="int" >       12       21       23       24       30 </v>
   <v type="int" >       12       21       23       29       30 </v>
   <v type="int" >       12       21       22       28       30 </v>
   <v type="int" >       12       21       27       28       30 </v>
   <v type="int" >       12       21       27       29       30 </v>
   <v type="int" >       12       18       19       22       28 </v>
   <v type="int" >       12       18       21       22       28 </v>
   <v type="int" >       12       18       21       27       28 </v>
   <v type="int" >       12       20       21       23       29 </v>
   <v type="int" >       12       20       21       27       29 </v>
   <v type="int" >       12       20       26       27       29 </v>
   <v type="int" >       12       17       18       21       27 </v>
   <v type="int" >       12       17       20       21       27 </v>
   <v type="int" >       12       17       20       26       27 </v>
   <v type="int" >       12       16       17       20       26 </v>
   <v type="int" >       12       26       27       27       29 </v>
   <v type="int" >       12       27       27       29       29 </v>
   <v type="int" >       12       27       29       29       32 </v>
   <v type="int" >       12       27       28       29       30 </v>
   <v type="int" >       12       27       29       29       30 </v>
   <v type="int" >       12       29       29       30       32 </v>
   <v type="int" >       12       28       29       30       30 </v>
   <v type="int" >       24       29       30       30       33 </v>
   <v type="int" >       24       29       30       32       33 </v>
   <v type="int" >       12       29       30       31       32 </v>
   <v type="int" >       12       30       31       32       33 </v>
   <v type="int" >       12       31       32       33       34 </v>
   <v type="int" >       12       30       30       31       33 </v>
   <v type="int" >       12       30       31       33       34 </v>
   <v type="int" >       12       30       32       33       33 </v>
   <v type="int" >       12       30       33       33       34 </v>
   <v type="int" >       12       27       28       29       32 </v>
   <v type="int" >       12       28       29       30       32 </v>
   <v type="int" >       12       28       30       32       33 </v>
   <v type="int" >       12       29       30       31       34 </v>
   <v type="int" >       12       29       30       33       34 </v>
   <v type="int" >       12       29       32       33       34 </v>
   <v type="int" >       12       27       28       30       33 </v>
   <v type="int" >       12       27       29       30       33 </v>
   <v type="int" >       12       27       29       32       33 </v>
   <v type="int" >       12       26       27       29       32 </v>
   <v type="int" >       12       32       33       33       34 </v>
   <v type="int" >       12       33       33       34       34 </v>
   <v type="int" >       12       33       34       34       35 </v>
   <v type="int" >       12       32       33       34       35 </v>
  </varray>
  <i name="volumeweight">      0.00032552 </i>
 </kpoints>
 <parameters>
  <separator name="general" >
   <i type="string" name="SYSTEM">unknown system</i>
   <i type="logical" name="LCOMPAT"> F  </i>
  </separator>
  <separator name="electronic" >
   <i type="string" name="PREC">accura</i>
   <i name="ENMAX">    400.00000000</i>
   <i name="ENAUG">    644.87300000</i>
   <i name="EDIFF">      0.00000100</i>
   <i type="int" name="IALGO">    38</i>
   <i type="int" name="IWAVPR">    11</i>
   <i type="int" name="NBANDS">    28</i>
   <i name="NELECT">     32.00000000</i>
   <i type="int" name="TURBO">     0</i>
   <i type="int" name="IRESTART">     0</i>
   <i type="int" name="NREBOOT">     0</i>
   <i type="int" name="NMIN">     0</i>
   <i name="EREF">      0.00000000</i>
   <separator name="electronic smearing" >
    <i type="int" name="ISMEAR">    -5</i>
    <i name="SIGMA">      0.01000000</i>
    <i name="KSPACING">      0.50000000</i>
    <i type="logical" name="KGAMMA"> T  </i>
   </separator>
   <separator name="electronic projectors" >
    <i type="logical" name="LREAL"> F  </i>
    <v name="ROPT">      0.00000000</v>
    <i type="int" name="LMAXPAW">  -100</i>
    <i type="int" name="LMAXMIX">     2</i>
    <i type="logical" name="NLSPLINE"> F  </i>
   </separator>
   <separator name="electronic startup" >
    <i type="int" name="ISTART">     0</i>
    <i type="int" name="ICHARG">     0</i>
    <i type="int" name="INIWAV">     1</i>
   </separator>
   <separator name="electronic spin" >
    <i type="int" name="ISPIN">     2</i>
    <i type="logical" name="LNONCOLLINEAR"> F  </i>
    <v name="MAGMOM">      1.00000000      1.00000000      1.00000000      1.00000000      1.00000000      1.00000000      1.00000000      1.00000000</v>
    <i name="NUPDOWN">     -1.00000000</i>
    <i type="logical" name="LSORBIT"> F  </i>
    <v name="SAXIS">      0.00000000      0.00000000      1.00000000</v>
    <i type="logical" name="LSPIRAL"> F  </i>
    <v name="QSPIRAL">      0.00000000      0.00000000      0.00000000</v>
    <i type="logical" name="LZEROZ"> F  </i>
   </separator>
   <separator name="electronic exchange-correlation" >
    <i type="logical" name="LASPH"> F  </i>
    <i type="logical" name="LMETAGGA"> F  </i>
   </separator>
   <separator name="electronic convergence" >
    <i type="int" name="NELM">    60</i>
    <i type="int" name="NELMDL">    -5</i>
    <i type="int" name="NELMIN">     2</i>
    <i name="ENINI">    400.00000000</i>
    <separator name="electronic convergence detail" >
     <i type="logical" name="LDIAG"> T  </i>
     <i type="logical" name="LSUBROT"> F  </i>
     <i name="WEIMIN">      0.00100000</i>
     <i name="EBREAK">      0.00000001</i>
     <i name="DEPER">      0.30000000</i>
     <i type="int" name="NRMM">     4</i>
     <i name="TIME">      0.40000000</i>
    </separator>
   </separator>
   <separator name="electronic mixer" >
    <i name="AMIX">      0.40000000</i>
    <i name="BMIX">      1.00000000</i>
    <i name="AMIN">      0.10000000</i>
    <i name="AMIX_MAG">      1.60000000</i>
    <i name="BMIX_MAG">      1.00000000</i>
    <separator name="electronic mixer details" >
     <i type="int" name="IMIX">     4</i>
     <i type="logical" name="MIXFIRST"> F  </i>
     <i type="int" name="MAXMIX">   -45</i>
     <i name="WC">    100.00000000</i>
     <i type="int" name="INIMIX">     1</i>
     <i type="int" name="MIXPRE">     1</i>
     <i type="int" name="MREMOVE">     5</i>
    </separator>
   </separator>
   <separator name="electronic dipolcorrection" >
    <i type="logical" name="LDIPOL"> F  </i>
    <i type="logical" name="LMONO"> F  </i>
    <i type="int" name="IDIPOL">     0</i>
    <i name="EPSILON">      1.00000000</i>
    <v name="DIPOL">   -100.00000000   -100.00000000   -100.00000000</v>
    <i name="EFIELD">      0.00000000</i>
   </separator>
  </separator>
  <separator name="grids" >
   <i type="int" name="NGX">    24</i>
   <i type="int" name="NGY">    24</i>
   <i type="int" name="NGZ">    24</i>
   <i type="int" name="NGXF">    48</i>
   <i type="int" name="NGYF">    48</i>
   <i type="int" name="NGZF">    48</i>
   <i type="logical" name="ADDGRID"> F  </i>
  </separator>
  <separator name="ionic" >
   <i type="int" name="NSW">   100</i>
   <i type="int" name="IBRION">     2</i>
   <i type="int" name="MDALGO">     0</i>
   <i type="int" name="ISIF">     3</i>
   <i name="PSTRESS">      0.00000000</i>
   <i name="EDIFFG">      0.00010000</i>
   <i type="int" name="NFREE">     1</i>
   <i name="POTIM">      0.01500000</i>
   <i name="SMASS">     -3.00000000</i>
   <i name="SCALEE">      1.00000000</i>
  </separator>
  <separator name="ionic md" >
   <i name="TEBEG">      0.00010000</i>
   <i name="TEEND">      0.00010000</i>
   <i type="int" name="NBLOCK">     1</i>
   <i type="int" name="KBLOCK">   100</i>
   <i type="int" name="NPACO">   256</i>
   <i name="APACO">     16.00000000</i>
  </separator>
  <separator name="symmetry" >
   <i type="int" name="ISYM">     2</i>
   <i name="SYMPREC">      0.00010000</i>
  </separator>
  <separator name="dos" >
   <i type="int" name="LORBIT">    11</i>
   <v name="RWIGS">     -1.00000000</v>
   <i type="int" name="NEDOS">   301</i>
   <i name="EMIN">     10.00000000</i>
   <i name="EMAX">    -10.00000000</i>
   <i name="EFERMI">      0.00000000</i>
  </separator>
  <separator name="writing" >
   <i type="int" name="NWRITE">     0</i>
   <i type="logical" name="LWAVE"> F  </i>
   <i type="logical" name="LDOWNSAMPLE"> F  </i>
   <i type="logical" name="LCHARG"> F  </i>
   <i type="logical" name="LPARD"> F  </i>
   <i type="logical" name="LVTOT"> F  </i>
   <i type="logical" name="LVHAR"> F  </i>
   <i type="logical" name="LELF"> F  </i>
   <i type="logical" name="LOPTICS"> F  </i>
   <v name="STM">      0.00000000      0.00000000      0.00000000      0.00000000      0.00000000      0.00000000      0.00000000</v>
  </separator>
  <separator name="performance" >
   <i type="int" name="NPAR">     4</i>
   <i type="int" name="NSIM">     4</i>
   <i type="int" name="NBLK">    -1</i>
   <i type="logical" name="LPLANE"> T  </i>
   <i type="logical" name="LSCALAPACK"> T  </i>
   <i type="logical" name="LSCAAWARE"> F  </i>
   <i type="logical" name="LSCALU"> F  </i>
   <i type="logical" name="LASYNC"> F  </i>
   <i type="logical" name="LORBITALREAL"> F  </i>
  </separator>
  <separator name="miscellaneous" >
   <i type="int" name="IDIOT">     3</i>
   <i type="int" name="ISPECIAL">     0</i>
   <i type="logical" name="LMUSIC"> F  </i>
   <v name="POMASS">     12.01100000</v>
   <v name="DARWINR">      0.00000000</v>
   <v name="DARWINV">      1.00000000</v>
   <i type="logical" name="LCORR"> T  </i>
  </separator>
  <i type="logical" name="GGA_COMPAT"> T  </i>
  <i type="logical" name="LBERRY"> F  </i>
  <i type="int" name="ICORELEVEL">     0</i>
  <i type="logical" name="LDAU"> F  </i>
  <i type="int" name="I_CONSTRAINED_M">     0</i>
  <separator name="electronic exchange-correlation" >
   <i type="string" name="GGA">--</i>
   <i type="int" name="VOSKOWN">     0</i>
   <i type="logical" name="LHFCALC"> F  </i>
   <i type="string" name="PRECFOCK"></i>
   <i type="logical" name="LSYMGRAD"> F  </i>
   <i type="logical" name="LHFONE"> F  </i>
   <i type="logical" name="LRHFCALC"> F  </i>
   <i type="logical" name="LTHOMAS"> F  </i>
   <i type="logical" name="LMODELHF"> F  </i>
   <i name="ENCUT4O">     -1.00000000</i>
   <i type="int" name="EXXOEP">     0</i>
   <i type="int" name="FOURORBIT">     0</i>
   <i name="AEXX">      0.00000000</i>
   <i name="HFALPHA">      0.00000000</i>
   <i name="MCALPHA">      0.00000000</i>
   <i name="ALDAX">      1.00000000</i>
   <i name="AGGAX">      1.00000000</i>
   <i name="ALDAC">      1.00000000</i>
   <i name="AGGAC">      1.00000000</i>
   <i type="int" name="NKREDX">     1</i>
   <i type="int" name="NKREDY">     1</i>
   <i type="int" name="NKREDZ">     1</i>
   <i type="logical" name="SHIFTRED"> F  </i>
   <i type="logical" name="ODDONLY"> F  </i>
   <i type="logical" name="EVENONLY"> F  </i>
   <i type="int" name="LMAXFOCK">     0</i>
   <i type="int" name="NMAXFOCKAE">     0</i>
   <i type="logical" name="LFOCKAEDFT"> F  </i>
   <i name="HFSCREEN">      0.00000000</i>
   <i name="HFSCREENC">      0.00000000</i>
   <i type="int" name="NBANDSGWLOW">     0</i>
  </separator>
  <separator name="vdW DFT" >
   <i type="logical" name="LUSE_VDW"> F  </i>
   <i name="Zab_VDW">     -0.84910000</i>
   <i name="PARAM1">      0.12340000</i>
   <i name="PARAM2">      1.00000000</i>
   <i name="PARAM3">      0.00000000</i>
  </separator>
  <separator name="model GW" >
   <i type="int" name="MODEL_GW">     0</i>
   <i name="MODEL_EPS0">      3.24849994</i>
   <i name="MODEL_ALPHA">      1.00000000</i>
  </separator>
  <separator name="linear response parameters" >
   <i type="logical" name="LEPSILON"> F  </i>
   <i type="logical" name="LRPA"> F  </i>
   <i type="logical" name="LNABLA"> F  </i>
   <i type="logical" name="LVEL"> F  </i>
   <i type="int" name="KINTER">     0</i>
   <i name="CSHIFT">      0.10000000</i>
   <i name="OMEGAMAX">     -1.00000000</i>
   <i name="DEG_THRESHOLD">      0.00200000</i>
   <i name="RTIME">     -0.10000000</i>
   <i name="WPLASMAI">      0.00000000</i>
   <v name="DFIELD">      0.00000000      0.00000000      0.00000000</v>
   <v name="WPLASMA">      0.00000000      0.00000000      0.00000000      0.00000000      0.00000000      0.00000000      0.00000000      0.00000000      0.00000000</v>
  </separator>
  <separator name="orbital magnetization" >
   <i type="logical" name="NUCIND"> F  </i>
   <v name="MAGPOS">      0.00000000      0.00000000      0.00000000</v>
   <i type="logical" name="LNICSALL"> T  </i>
   <i type="logical" name="ORBITALMAG"> F  </i>
   <i type="logical" name="LMAGBLOCH"> F  </i>
   <i type="logical" name="LCHIMAG"> F  </i>
   <i type="logical" name="LGAUGE"> T  </i>
   <i type="int" name="MAGATOM">     0</i>
   <v name="MAGDIPOL">      0.00000000      0.00000000      0.00000000</v>
   <v name="AVECCONST">      0.00000000      0.00000000      0.00000000</v>
  </separator>
  <separator name="response functions" >
   <i type="logical" name="LADDER"> F  </i>
   <i type="logical" name="LRPAFORCE"> F  </i>
   <i type="logical" name="LFXC"> F  </i>
   <i type="logical" name="LHARTREE"> T  </i>
   <i type="int" name="IBSE">     0</i>
   <v type="int" name="KPOINT">    -1     0     0     0</v>
   <i type="logical" name="LTCTE"> F  </i>
   <i type="logical" name="LTETE"> F  </i>
   <i type="logical" name="LTRIPLET"> F  </i>
   <i type="logical" name="LFXCEPS"> F  </i>
   <i type="logical" name="LFXHEG"> F  </i>
   <i type="int" name="NATURALO">     2</i>
   <i type="logical" name="L2ORDER"> F  </i>
   <i type="logical" name="LMP2LT"> F  </i>
   <i type="logical" name="LUSEW"> F  </i>
   <i name="ENCUTGW">     -2.00000000</i>
   <i name="ENCUTGWSOFT">     -2.00000000</i>
   <i name="ENCUTLF">     -1.00000000</i>
   <i type="int" name="LMAXMP2">    -1</i>
   <i name="SCISSOR">      0.00000000</i>
   <i type="int" name="NOMEGA">     0</i>
   <i type="int" name="NOMEGAR">     0</i>
   <i type="int" name="NBANDSGW">    -1</i>
   <i type="int" name="NBANDSO">    -1</i>
   <i type="int" name="NBANDSV">    -1</i>
   <i type="int" name="NELM">     1</i>
   <i type="int" name="NELMHF">     1</i>
   <i type="int" name="DIM">     3</i>
   <i type="int" name="ANTIRES">     0</i>
   <i name="OMEGAMAX">    -30.00000000</i>
   <i name="OMEGAMIN">    -30.00000000</i>
   <i name="OMEGATL">   -200.00000000</i>
   <i type="int" name="OMEGAGRID">   140</i>
   <i name="CSHIFT">     -0.10000000</i>
   <i type="logical" name="SELFENERGY"> F  </i>
   <i type="logical" name="LSPECTRAL"> F  </i>
   <i type="logical" name="LSPECTRALGW"> F  </i>
   <i type="logical" name="LSINGLES"> F  </i>
   <i type="logical" name="LFERMIGW"> F  </i>
   <i type="logical" name="ODDONLYGW"> F  </i>
   <i type="logical" name="EVENONLYGW"> F  </i>
   <i type="int" name="NKREDLFX">     1</i>
   <i type="int" name="NKREDLFY">     1</i>
   <i type="int" name="NKREDLFZ">     1</i>
   <i type="int" name="MAXMEM">  2800</i>
   <i type="int" name="TELESCOPE">     0</i>
   <i type="int" name="TAUPAR">     1</i>
   <i type="int" name="OMEGAPAR">    -1</i>
   <i name="LAMBDA">      1.00000000</i>
  </separator>
  <separator name="External order field" >
   <i name="OFIELD_KAPPA">      0.00000000</i>
   <v name="OFIELD_K">      0.00000000      0.00000000      0.00000000</v>
   <i name="OFIELD_Q6_NEAR">      0.00000000</i>
   <i name="OFIELD_Q6_FAR">      0.00000000</i>
   <i name="OFIELD_A">      0.00000000</i>
  </separator>
 </parameters>
 <atominfo>
  <atoms>       8 </atoms>
  <types>       1 </types>
  <array name="atoms" >
   <dimension dim="1">ion</dimension>
   <field type="string">element</field>
   <field type="int">atomtype</field>
   <set>
    <rc><c>C </c><c>   1</c></rc>
    <rc><c>C </c><c>   1</c></rc>
    <rc><c>C </c><c>   1</c></rc>
    <rc><c>C </c><c>   1</c></rc>
    <rc><c>C </c><c>   1</c></rc>
    <rc><c>C </c><c>   1</c></rc>
    <rc><c>C </c><c>   1</c></rc>
    <rc><c>C </c><c>   1</c></rc>
   </set>
  </array>
  <array name="atomtypes" >
   <dimension dim="1">type</dimension>
   <field type="int">atomspertype</field>
   <field type="string">element</field>
   <field>mass</field>
   <field>valence</field>
   <field type="string">pseudopotential</field>
   <set>
    <rc><c>   8</c><c>C </c><c>     12.01100000</c><c>      4.00000000</c><c> PAW_PBE C 08Apr2002                    </c></rc>
   </set>
  </array>
 </atominfo>
 <structure name="initialpos" >
  <crystal>
   <varray name="basis" >
    <v>       3.51188700      -0.00000000      -0.00000000 </v>
    <v>       0.00000000       3.51188700      -0.00000000 </v>
    <v>       0.00000000       0.00000000       3.51188700 </v>
   </varray>
   <i name="volume">     43.31333259 </i>
   <varray name="rec_basis" >
    <v>       0.28474720      -0.00000000       0.00000000 </v>
    <v>       0.00000000       0.28474720      -0.00000000 </v>
    <v>       0.00000000       0.00000000       0.28474720 </v>
   </varray>
  </crystal>
  <varray name="positions" >
   <v>       0.75669600       0.75669600       0.75669600 </v>
   <v>       0.00669500       0.50669600       0.00669500 </v>
   <v>       0.50669600       0.50669600       0.50669600 </v>
   <v>       0.00669500       0.00669500       0.50669600 </v>
   <v>       0.50669600       0.00669500       0.00669500 </v>
   <v>       0.75669600       0.25669600       0.25669600 </v>
   <v>       0.25669600       0.25669600       0.75669600 </v>
   <v>       0.25669600       0.75669600       0.25669600 </v>
  </varray>
 </structure>
 <calculation>
  <scstep>
   <time name="dav">    0.59    0.59</time>
   <time name="total">    0.64    0.65</time>
   <energy>
    <i name="alphaZ">    120.39550375 </i>
    <i name="ewald">  -1413.59899669 </i>
    <i name="hartreedc">     -2.58221799 </i>
    <i name="XCdc">    109.41487070 </i>
    <i name="pawpsdc">    103.69076704 </i>
    <i name="pawaedc">   -108.69556966 </i>
    <i name="eentropy">      0.00000000 </i>
    <i name="bandstr">    -33.51295717 </i>
    <i name="atom">   1177.01779097 </i>
    <i name="e_fr_energy">    -47.87080904 </i>
    <i name="e_wo_entrp">    -47.87080904 </i>
    <i name="e_0_energy">    -47.87080904 </i>
   </energy>
  </scstep>
  <scstep>
   <time name="dav">    0.70    0.70</time>
   <time name="total">    0.70    0.70</time>
   <energy>
    <i name="e_fr_energy">   -179.37952034 </i>
    <i name="e_wo_entrp">   -179.37952034 </i>
    <i name="e_0_energy">   -179.37952034 </i>
   </energy>
  </scstep>
  <scstep>
   <time name="dav">    0.71    0.72</time>
   <time name="total">    0.72    0.72</time>
   <energy>
    <i name="e_fr_energy">   -184.66525852 </i>
    <i name="e_wo_entrp">   -184.66525852 </i>
    <i name="e_0_energy">   -184.66525852 </i>
   </energy>
  </scstep>
  <scstep>
   <time name="dav">    0.68    0.68</time>
   <time name="total">    0.69    0.69</time>
   <energy>
    <i name="e_fr_energy">   -184.74605421 </i>
    <i name="e_wo_entrp">   -184.74605421 </i>
    <i name="e_0_energy">   -184.74605421 </i>
   </energy>
  </scstep>
  <scstep>
   <time name="dav">    0.71    0.71</time>
   <time name="total">    0.75    0.75</time>
   <energy>
    <i name="e_fr_energy">   -184.74812255 </i>
    <i name="e_wo_entrp">   -184.74812255 </i>
    <i name="e_0_energy">   -184.74812255 </i>
   </energy>
  </scstep>
  <scstep>
   <time name="dav">    0.60    0.60</time>
   <time name="total">    0.65    0.65</time>
   <energy>
    <i name="e_fr_energy">   -102.46394007 </i>
    <i name="e_wo_entrp">   -102.46394007 </i>
    <i name="e_0_energy">   -102.46394007 </i>
   </energy>
  </scstep>
  <scstep>
   <time name="dav">    0.64    0.64</time>
   <time name="total">    0.69    0.69</time>
   <energy>
    <i name="e_fr_energy">    -72.27754937 </i>
    <i name="e_wo_entrp">    -72.27754937 </i>
    <i name="e_0_energy">    -72.27754937 </i>
   </energy>
  </scstep>
  <scstep>
   <time name="dav">    0.65    0.65</time>
   <time name="total">    0.70    0.71</time>
   <energy>
    <i name="e_fr_energy">    -72.53052689 </i>
    <i name="e_wo_entrp">    -72.53052689 </i>
    <i name="e_0_energy">    -72.53052689 </i>
   </energy>
  </scstep>
  <scstep>
   <time name="dav">    0.63    0.63</time>
   <time name="total">    0.69    0.69</time>
   <energy>
    <i name="e_fr_energy">    -72.57042023 </i>
    <i name="e_wo_entrp">    -72.57042023 </i>
    <i name="e_0_energy">    -72.57042023 </i>
   </energy>
  </scstep>
  <scstep>
   <time name="dav">    0.65    0.65</time>
   <time name="total">    0.70    0.70</time>
   <energy>
    <i name="e_fr_energy">    -72.58145661 </i>
    <i name="e_wo_entrp">    -72.58145661 </i>
    <i name="e_0_energy">    -72.58145661 </i>
   </energy>
  </scstep>
  <scstep>
   <time name="dav">    0.65    0.65</time>
   <time name="total">    0.70    0.70</time>
   <energy>
    <i name="e_fr_energy">    -72.58204422 </i>
    <i name="e_wo_entrp">    -72.58204422 </i>
    <i name="e_0_energy">    -72.58204422 </i>
   </energy>
  </scstep>
  <scstep>
   <time name="dav">    0.61    0.61</time>
   <time name="total">    0.66    0.66</time>
   <energy>
    <i name="e_fr_energy">    -72.58236408 </i>
    <i name="e_wo_entrp">    -72.58236408 </i>
    <i name="e_0_energy">    -72.58236408 </i>
   </energy>
  </scstep>
  <scstep>
   <time name="dav">    0.65    0.65</time>
   <time name="total">    0.70    0.70</time>
   <energy>
    <i name="e_fr_energy">    -72.58237272 </i>
    <i name="e_wo_entrp">    -72.58237272 </i>
    <i name="e_0_energy">    -72.58237272 </i>
   </energy>
  </scstep>
  <scstep>
   <time name="dav">    0.50    0.50</time>
   <time name="total">    0.52    0.52</time>
   <energy>
    <i name="alphaZ">    120.39550375 </i>
    <i name="ewald">  -1413.59899669 </i>
    <i name="hartreedc">   -102.89108229 </i>
    <i name="XCdc">    119.03953734 </i>
    <i name="pawpsdc">    552.06651088 </i>
    <i name="pawaedc">   -562.31275548 </i>
    <i name="eentropy">      0.00000000 </i>
    <i name="bandstr">     37.70111815 </i>
    <i name="atom">   1177.01779097 </i>
    <i name="e_fr_energy">    -72.58237338 </i>
    <i name="e_wo_entrp">    -72.58237338 </i>
    <i name="e_0_energy">    -72.58237338 </i>
   </energy>
  </scstep>
  <structure>
   <crystal>
    <varray name="basis" >
     <v>       3.51188700      -0.00000000      -0.00000000 </v>
     <v>       0.00000000       3.51188700      -0.00000000 </v>
     <v>       0.00000000       0.00000000       3.51188700 </v>
    </varray>
    <i name="volume">     43.31333259 </i>
    <varray name="rec_basis" >
     <v>       0.28474720      -0.00000000       0.00000000 </v>
     <v>       0.00000000       0.28474720      -0.00000000 </v>
     <v>       0.00000000       0.00000000       0.28474720 </v>
    </varray>
   </crystal>
   <varray name="positions" >
    <v>       0.75669600       0.75669600       0.75669600 </v>
    <v>       0.00669500       0.50669600       0.00669500 </v>
    <v>       0.50669600       0.50669600       0.50669600 </v>
    <v>       0.00669500       0.00669500       0.50669600 </v>
    <v>       0.50669600       0.00669500       0.00669500 </v>
    <v>       0.75669600       0.25669600       0.25669600 </v>
    <v>       0.25669600       0.25669600       0.75669600 </v>
    <v>       0.25669600       0.75669600       0.25669600 </v>
   </varray>
  </structure>
  <varray name="forces" >
   <v>       0.00000000       0.00000000      -0.00000000 </v>
   <v>      -0.00000000      -0.00000000      -0.00000000 </v>
   <v>      -0.00000000       0.00000000      -0.00000000 </v>
   <v>      -0.00000000      -0.00000000      -0.00000000 </v>
   <v>      -0.00000000      -0.00000000      -0.00000000 </v>
   <v>      -0.00000000       0.00000000       0.00000000 </v>
   <v>       0.00000000      -0.00000000       0.00000000 </v>
   <v>       0.00000000      -0.00000000       0.00000000 </v>
  </varray>
  <varray name="stress" >
   <v>     207.46135423       0.00000000      -0.00000000 </v>
   <v>      -0.00000000     207.46135423      -0.00000000 </v>
   <v>       0.00000000      -0.00000000     207.46135423 </v>
  </varray>
  <energy>
   <i name="e_fr_energy">    -72.58237338 </i>
   <i name="e_wo_entrp">    -72.58237338 </i>
   <i name="e_0_energy">      0.00000000 </i>
  </energy>
  <time name="totalsc">    9.70    9.72</time>
 </calculation>
 <calculation>
  <scstep>
   <time name="dav">    0.61    0.61</time>
   <time name="total">    0.66    0.66</time>
   <energy>
    <i name="alphaZ">    120.02977298 </i>
    <i name="ewald">  -1412.16616068 </i>
    <i name="hartreedc">   -102.78916944 </i>
    <i name="XCdc">    118.92530041 </i>
    <i name="pawpsdc">    552.06875787 </i>
    <i name="pawaedc">   -562.31468184 </i>
    <i name="eentropy">      0.00000000 </i>
    <i name="bandstr">     36.62947061 </i>
    <i name="atom">   1177.01779097 </i>
    <i name="e_fr_energy">    -72.59891911 </i>
    <i name="e_wo_entrp">    -72.59891911 </i>
    <i name="e_0_energy">    -72.59891911 </i>
   </energy>
  </scstep>
  <scstep>
   <time name="dav">    0.66    0.66</time>
   <time name="total">    0.71    0.71</time>
   <energy>
    <i name="e_fr_energy">    -72.59881667 </i>
    <i name="e_wo_entrp">    -72.59881667 </i>
    <i name="e_0_energy">    -72.59881667 </i>
   </energy>
  </scstep>
  <scstep>
   <time name="dav">    0.60    0.60</time>
   <time name="total">    0.65    0.65</time>
   <energy>
    <i name="e_fr_energy">    -72.59876891 </i>
    <i name="e_wo_entrp">    -72.59876891 </i>
    <i name="e_0_energy">    -72.59876891 </i>
   </energy>
  </scstep>
  <scstep>
   <time name="dav">    0.50    0.50</time>
   <time name="total">    0.52    0.52</time>
   <energy>
    <i name="alphaZ">    120.02977298 </i>
    <i name="ewald">  -1412.16616068 </i>
    <i name="hartreedc">   -103.06027903 </i>
    <i name="XCdc">    118.95053791 </i>
    <i name="pawpsdc">    550.50528577 </i>
    <i name="pawaedc">   -560.74207063 </i>
    <i name="eentropy">      0.00000000 </i>
    <i name="bandstr">     36.86635441 </i>
    <i name="atom">   1177.01779097 </i>
    <i name="e_fr_energy">    -72.59876831 </i>
    <i name="e_wo_entrp">    -72.59876831 </i>
    <i name="e_0_energy">    -72.59876831 </i>
   </energy>
  </scstep>
  <structure>
   <crystal>
    <varray name="basis" >
     <v>       3.51545029       0.00000000      -0.00000000 </v>
     <v>      -0.00000000       3.51545029      -0.00000000 </v>
     <v>       0.00000000      -0.00000000       3.51545029 </v>
    </varray>
    <i name="volume">     43.44530833 </i>
    <varray name="rec_basis" >
     <v>       0.28445858       0.00000000      -0.00000000 </v>
     <v>      -0.00000000       0.28445858       0.00000000 </v>
     <v>       0.00000000       0.00000000       0.28445858 </v>
    </varray>
   </crystal>
   <varray name="positions" >
    <v>       0.75669600       0.75669600       0.75669600 </v>
    <v>       0.00669500       0.50669600       0.00669500 </v>
    <v>       0.50669600       0.50669600       0.50669600 </v>
    <v>       0.00669500       0.00669500       0.50669600 </v>
    <v>       0.50669600       0.00669500       0.00669500 </v>
    <v>       0.75669600       0.25669600       0.25669600 </v>
    <v>       0.25669600       0.25669600       0.75669600 </v>
    <v>       0.25669600       0.75669600       0.25669600 </v>
   </varray>
  </structure>
  <varray name="forces" >
   <v>      -0.00000000       0.00000000       0.00000000 </v>
   <v>       0.00000000      -0.00000000      -0.00000000 </v>
   <v>       0.00000000       0.00000000       0.00000000 </v>
   <v>       0.00000000      -0.00000000       0.00000000 </v>
   <v>       0.00000000       0.00000000      -0.00000000 </v>
   <v>      -0.00000000       0.00000000      -0.00000000 </v>
   <v>      -0.00000000       0.00000000       0.00000000 </v>
   <v>      -0.00000000      -0.00000000      -0.00000000 </v>
  </varray>
  <varray name="stress" >
   <v>     190.67796264       0.00000000      -0.00000000 </v>
   <v>       0.00000000     190.67796264       0.00000000 </v>
   <v>      -0.00000000       0.00000000     190.67796264 </v>
  </varray>
  <energy>
   <i name="e_fr_energy">    -72.59876831 </i>
   <i name="e_wo_entrp">    -72.59876831 </i>
   <i name="e_0_energy">      0.00000000 </i>
  </energy>
  <time name="totalsc">    2.71    2.73</time>
 </calculation>
 <calculation>
  <scstep>
   <time name="dav">    0.59    0.59</time>
   <time name="total">    0.64    0.65</time>
   <energy>
    <i name="alphaZ">    118.94142978 </i>
    <i name="ewald">  -1407.88502784 </i>
    <i name="hartreedc">   -102.74747087 </i>
    <i name="XCdc">    118.60838810 </i>
    <i name="pawpsdc">    550.42811416 </i>
    <i name="pawaedc">   -560.66409150 </i>
    <i name="eentropy">      0.00000000 </i>
    <i name="bandstr">     33.65958654 </i>
    <i name="atom">   1177.01779097 </i>
    <i name="e_fr_energy">    -72.64128066 </i>
    <i name="e_wo_entrp">    -72.64128066 </i>
    <i name="e_0_energy">    -72.64128066 </i>
   </energy>
  </scstep>
  <scstep>
   <time name="dav">    0.66    0.66</time>
   <time name="total">    0.71    0.71</time>
   <energy>
    <i name="e_fr_energy">    -72.64037981 </i>
    <i name="e_wo_entrp">    -72.64037981 </i>
    <i name="e_0_energy">    -72.64037981 </i>
   </energy>
  </scstep>
  <scstep>
   <time name="dav">    0.59    0.59</time>
   <time name="total">    0.64    0.64</time>
   <energy>
    <i name="e_fr_energy">    -72.63996770 </i>
    <i name="e_wo_entrp">    -72.63996770 </i>
    <i name="e_0_energy">    -72.63996770 </i>
   </energy>
  </scstep>
  <scstep>
   <time name="dav">    0.64    0.64</time>
   <time name="total">    0.69    0.69</time>
   <energy>
    <i name="e_fr_energy">    -72.63996478 </i>
    <i name="e_wo_entrp">    -72.63996478 </i>
    <i name="e_0_energy">    -72.63996478 </i>
   </energy>
  </scstep>
  <scstep>
   <time name="dav">    0.44    0.44</time>
   <time name="total">    0.49    0.49</time>
   <energy>
    <i name="e_fr_energy">    -72.63996340 </i>
    <i name="e_wo_entrp">    -72.63996340 </i>
    <i name="e_0_energy">    -72.63996340 </i>
   </energy>
  </scstep>
  <scstep>
   <time name="dav">    0.42    0.42</time>
   <time name="total">    0.44    0.45</time>
   <energy>
    <i name="alphaZ">    118.94142978 </i>
    <i name="ewald">  -1407.88502784 </i>
    <i name="hartreedc">   -103.55281303 </i>
    <i name="XCdc">    118.68330546 </i>
    <i name="pawpsdc">    545.46447641 </i>
    <i name="pawaedc">   -555.67022434 </i>
    <i name="eentropy">      0.00000000 </i>
    <i name="bandstr">     34.36109933 </i>
    <i name="atom">   1177.01779097 </i>
    <i name="e_fr_energy">    -72.63996327 </i>
    <i name="e_wo_entrp">    -72.63996327 </i>
    <i name="e_0_energy">    -72.63996327 </i>
   </energy>
  </scstep>
  <structure>
   <crystal>
    <varray name="basis" >
     <v>       3.52614016       0.00000000      -0.00000000 </v>
     <v>      -0.00000000       3.52614016      -0.00000000 </v>
     <v>       0.00000000      -0.00000000       3.52614016 </v>
    </varray>
    <i name="volume">     43.84284354 </i>
    <varray name="rec_basis" >
     <v>       0.28359621       0.00000000      -0.00000000 </v>
     <v>      -0.00000000       0.28359621       0.00000000 </v>
     <v>       0.00000000       0.00000000       0.28359621 </v>
    </varray>
   </crystal>
   <varray name="positions" >
    <v>       0.75669600       0.75669600       0.75669600 </v>
    <v>       0.00669500       0.50669600       0.00669500 </v>
    <v>       0.50669600       0.50669600       0.50669600 </v>
    <v>       0.00669500       0.00669500       0.50669600 </v>
    <v>       0.50669600       0.00669500       0.00669500 </v>
    <v>       0.75669600       0.25669600       0.25669600 </v>
    <v>       0.25669600       0.25669600       0.75669600 </v>
    <v>       0.25669600       0.75669600       0.25669600 </v>
   </varray>
  </structure>
  <varray name="forces" >
   <v>       0.00000000      -0.00000000       0.00000000 </v>
   <v>      -0.00000000       0.00000000      -0.00000000 </v>
   <v>      -0.00000000      -0.00000000       0.00000000 </v>
   <v>      -0.00000000      -0.00000000       0.00000000 </v>
   <v>      -0.00000000       0.00000000      -0.00000000 </v>
   <v>       0.00000000       0.00000000      -0.00000000 </v>
   <v>       0.00000000      -0.00000000       0.00000000 </v>
   <v>       0.00000000       0.00000000      -0.00000000 </v>
  </varray>
  <varray name="stress" >
   <v>     141.70821065      -0.00000000       0.00000000 </v>
   <v>       0.00000000     141.70821065      -0.00000000 </v>
   <v>      -0.00000000      -0.00000000     141.70821065 </v>
  </varray>
  <energy>
   <i name="e_fr_energy">    -72.63996327 </i>
   <i name="e_wo_entrp">    -72.63996327 </i>
   <i name="e_0_energy">      0.00000000 </i>
  </energy>
  <time name="totalsc">    3.80    3.82</time>
 </calculation>
 <calculation>
  <scstep>
   <time name="dav">    0.60    0.60</time>
   <time name="total">    0.65    0.65</time>
   <energy>
    <i name="alphaZ">    116.80390056 </i>
    <i name="ewald">  -1399.40016512 </i>
    <i name="hartreedc">   -102.92912376 </i>
    <i name="XCdc">    118.00485442 </i>
    <i name="pawpsdc">    545.47443863 </i>
    <i name="pawaedc">   -555.68029155 </i>
    <i name="eentropy">      0.00000000 </i>
    <i name="bandstr">     28.01615794 </i>
    <i name="atom">   1177.01779097 </i>
    <i name="e_fr_energy">    -72.69243790 </i>
    <i name="e_wo_entrp">    -72.69243790 </i>
    <i name="e_0_energy">    -72.69243790 </i>
   </energy>
  </scstep>
  <scstep>
   <time name="dav">    0.65    0.65</time>
   <time name="total">    0.70    0.70</time>
   <energy>
    <i name="e_fr_energy">    -72.68885800 </i>
    <i name="e_wo_entrp">    -72.68885800 </i>
    <i name="e_0_energy">    -72.68885800 </i>
   </energy>
  </scstep>
  <scstep>
   <time name="dav">    0.59    0.59</time>
   <time name="total">    0.64    0.64</time>
   <energy>
    <i name="e_fr_energy">    -72.68723269 </i>
    <i name="e_wo_entrp">    -72.68723269 </i>
    <i name="e_0_energy">    -72.68723269 </i>
   </energy>
  </scstep>
  <scstep>
   <time name="dav">    0.64    0.64</time>
   <time name="total">    0.69    0.69</time>
   <energy>
    <i name="e_fr_energy">    -72.68722373 </i>
    <i name="e_wo_entrp">    -72.68722373 </i>
    <i name="e_0_energy">    -72.68722373 </i>
   </energy>
  </scstep>
  <scstep>
   <time name="dav">    0.49    0.49</time>
   <time name="total">    0.54    0.54</time>
   <energy>
    <i name="e_fr_energy">    -72.68721977 </i>
    <i name="e_wo_entrp">    -72.68721977 </i>
    <i name="e_0_energy">    -72.68721977 </i>
   </energy>
  </scstep>
  <scstep>
   <time name="dav">    0.42    0.42</time>
   <time name="total">    0.44    0.44</time>
   <energy>
    <i name="alphaZ">    116.80390056 </i>
    <i name="ewald">  -1399.40016512 </i>
    <i name="hartreedc">   -104.54062073 </i>
    <i name="XCdc">    118.15489448 </i>
    <i name="pawpsdc">    535.86203595 </i>
    <i name="pawaedc">   -546.00854453 </i>
    <i name="eentropy">      0.00000000 </i>
    <i name="bandstr">     29.42348864 </i>
    <i name="atom">   1177.01779097 </i>
    <i name="e_fr_energy">    -72.68721977 </i>
    <i name="e_wo_entrp">    -72.68721977 </i>
    <i name="e_0_energy">    -72.68721977 </i>
   </energy>
  </scstep>
  <structure>
   <crystal>
    <varray name="basis" >
     <v>       3.54751990       0.00000000      -0.00000000 </v>
     <v>      -0.00000000       3.54751990      -0.00000000 </v>
     <v>       0.00000000      -0.00000000       3.54751990 </v>
    </varray>
    <i name="volume">     44.64517427 </i>
    <varray name="rec_basis" >
     <v>       0.28188707       0.00000000      -0.00000000 </v>
     <v>      -0.00000000       0.28188707       0.00000000 </v>
     <v>       0.00000000       0.00000000       0.28188707 </v>
    </varray>
   </crystal>
   <varray name="positions" >
    <v>       0.75669600       0.75669600       0.75669600 </v>
    <v>       0.00669500       0.50669600       0.00669500 </v>
    <v>       0.50669600       0.50669600       0.50669600 </v>
    <v>       0.00669500       0.00669500       0.50669600 </v>
    <v>       0.50669600       0.00669500       0.00669500 </v>
    <v>       0.75669600       0.25669600       0.25669600 </v>
    <v>       0.25669600       0.25669600       0.75669600 </v>
    <v>       0.25669600       0.75669600       0.25669600 </v>
   </varray>
  </structure>
  <varray name="forces" >
   <v>       0.00000000      -0.00000000      -0.00000000 </v>
   <v>      -0.00000000      -0.00000000      -0.00000000 </v>
   <v>      -0.00000000      -0.00000000      -0.00000000 </v>
   <v>      -0.00000000      -0.00000000      -0.00000000 </v>
   <v>      -0.00000000       0.00000000      -0.00000000 </v>
   <v>       0.00000000       0.00000000       0.00000000 </v>
   <v>       0.00000000       0.00000000       0.00000000 </v>
   <v>       0.00000000       0.00000000       0.00000000 </v>
  </varray>
  <varray name="stress" >
   <v>      48.26822782      -0.00000000      -0.00000000 </v>
   <v>      -0.00000000      48.26822782      -0.00000000 </v>
   <v>       0.00000000      -0.00000000      48.26822782 </v>
  </varray>
  <energy>
   <i name="e_fr_energy">    -72.68721977 </i>
   <i name="e_wo_entrp">    -72.68721977 </i>
   <i name="e_0_energy">      0.00000000 </i>
  </energy>
  <time name="totalsc">    3.84    3.85</time>
 </calculation>
 <calculation>
  <scstep>
   <time name="dav">    0.59    0.59</time>
   <time name="total">    0.64    0.65</time>
   <energy>
    <i name="alphaZ">    112.68007585 </i>
    <i name="ewald">  -1382.73359855 </i>
    <i name="hartreedc">   -103.29561953 </i>
    <i name="XCdc">    116.82029885 </i>
    <i name="pawpsdc">    535.88178966 </i>
    <i name="pawaedc">   -546.02849240 </i>
    <i name="eentropy">      0.00000000 </i>
    <i name="bandstr">     16.98935383 </i>
    <i name="atom">   1177.01779097 </i>
    <i name="e_fr_energy">    -72.66840131 </i>
    <i name="e_wo_entrp">    -72.66840131 </i>
    <i name="e_0_energy">    -72.66840131 </i>
   </energy>
  </scstep>
  <scstep>
   <time name="dav">    0.65    0.65</time>
   <time name="total">    0.70    0.70</time>
   <energy>
    <i name="e_fr_energy">    -72.65417063 </i>
    <i name="e_wo_entrp">    -72.65417063 </i>
    <i name="e_0_energy">    -72.65417063 </i>
   </energy>
  </scstep>
  <scstep>
   <time name="dav">    0.60    0.60</time>
   <time name="total">    0.64    0.65</time>
   <energy>
    <i name="e_fr_energy">    -72.64774797 </i>
    <i name="e_wo_entrp">    -72.64774797 </i>
    <i name="e_0_energy">    -72.64774797 </i>
   </energy>
  </scstep>
  <scstep>
   <time name="dav">    0.65    0.65</time>
   <time name="total">    0.70    0.70</time>
   <energy>
    <i name="e_fr_energy">    -72.64771840 </i>
    <i name="e_wo_entrp">    -72.64771840 </i>
    <i name="e_0_energy">    -72.64771840 </i>
   </energy>
  </scstep>
  <scstep>
   <time name="dav">    0.64    0.64</time>
   <time name="total">    0.69    0.69</time>
   <energy>
    <i name="e_fr_energy">    -72.64770669 </i>
    <i name="e_wo_entrp">    -72.64770669 </i>
    <i name="e_0_energy">    -72.64770669 </i>
   </energy>
  </scstep>
  <scstep>
   <time name="dav">    0.45    0.45</time>
   <time name="total">    0.47    0.47</time>
   <energy>
    <i name="alphaZ">    112.68007585 </i>
    <i name="ewald">  -1382.73359855 </i>
    <i name="hartreedc">   -106.52047491 </i>
    <i name="XCdc">    117.12102872 </i>
    <i name="pawpsdc">    517.63384308 </i>
    <i name="pawaedc">   -527.66371714 </i>
    <i name="eentropy">      0.00000000 </i>
    <i name="bandstr">     19.81734534 </i>
    <i name="atom">   1177.01779097 </i>
    <i name="e_fr_energy">    -72.64770664 </i>
    <i name="e_wo_entrp">    -72.64770664 </i>
    <i name="e_0_energy">    -72.64770664 </i>
   </energy>
  </scstep>
  <structure>
   <crystal>
    <varray name="basis" >
     <v>       3.59027939       0.00000000      -0.00000000 </v>
     <v>      -0.00000000       3.59027939      -0.00000000 </v>
     <v>       0.00000000      -0.00000000       3.59027939 </v>
    </varray>
    <i name="volume">     46.27908223 </i>
    <varray name="rec_basis" >
     <v>       0.27852986       0.00000000      -0.00000000 </v>
     <v>      -0.00000000       0.27852986       0.00000000 </v>
     <v>       0.00000000       0.00000000       0.27852986 </v>
    </varray>
   </crystal>
   <varray name="positions" >
    <v>       0.75669600       0.75669600       0.75669600 </v>
    <v>       0.00669500       0.50669600       0.00669500 </v>
    <v>       0.50669600       0.50669600       0.50669600 </v>
    <v>       0.00669500       0.00669500       0.50669600 </v>
    <v>       0.50669600       0.00669500       0.00669500 </v>
    <v>       0.75669600       0.25669600       0.25669600 </v>
    <v>       0.25669600       0.25669600       0.75669600 </v>
    <v>       0.25669600       0.75669600       0.25669600 </v>
   </varray>
  </structure>
  <varray name="forces" >
   <v>      -0.00000000       0.00000000       0.00000000 </v>
   <v>       0.00000000       0.00000000       0.00000000 </v>
   <v>       0.00000000       0.00000000       0.00000000 </v>
   <v>       0.00000000      -0.00000000       0.00000000 </v>
   <v>       0.00000000       0.00000000      -0.00000000 </v>
   <v>      -0.00000000      -0.00000000       0.00000000 </v>
   <v>      -0.00000000      -0.00000000      -0.00000000 </v>
   <v>      -0.00000000      -0.00000000      -0.00000000 </v>
  </varray>
  <varray name="stress" >
   <v>    -121.34487610      -0.00000000       0.00000000 </v>
   <v>       0.00000000    -121.34487610      -0.00000000 </v>
   <v>      -0.00000000       0.00000000    -121.34487610 </v>
  </varray>
  <energy>
   <i name="e_fr_energy">    -72.64770664 </i>
   <i name="e_wo_entrp">    -72.64770664 </i>
   <i name="e_0_energy">      0.00000000 </i>
  </energy>
  <time name="totalsc">    4.02    4.04</time>
 </calculation>
 <calculation>
  <scstep>
   <time name="dav">    0.60    0.60</time>
   <time name="total">    0.65    0.65</time>
   <energy>
    <i name="alphaZ">    115.64040005 </i>
    <i name="ewald">  -1394.73810855 </i>
    <i name="hartreedc">   -107.44548475 </i>
    <i name="XCdc">    118.08472977 </i>
    <i name="pawpsdc">    517.67159336 </i>
    <i name="pawaedc">   -527.70184443 </i>
    <i name="eentropy">      0.00000000 </i>
    <i name="bandstr">     28.76641254 </i>
    <i name="atom">   1177.01779097 </i>
    <i name="e_fr_energy">    -72.70451103 </i>
    <i name="e_wo_entrp">    -72.70451103 </i>
    <i name="e_0_energy">    -72.70451103 </i>
   </energy>
  </scstep>
  <scstep>
   <time name="dav">    0.64    0.64</time>
   <time name="total">    0.69    0.69</time>
   <energy>
    <i name="e_fr_energy">    -72.69713826 </i>
    <i name="e_wo_entrp">    -72.69713826 </i>
    <i name="e_0_energy">    -72.69713826 </i>
   </energy>
  </scstep>
  <scstep>
   <time name="dav">    0.59    0.59</time>
   <time name="total">    0.64    0.65</time>
   <energy>
    <i name="e_fr_energy">    -72.69380317 </i>
    <i name="e_wo_entrp">    -72.69380317 </i>
    <i name="e_0_energy">    -72.69380317 </i>
   </energy>
  </scstep>
  <scstep>
   <time name="dav">    0.65    0.65</time>
   <time name="total">    0.70    0.70</time>
   <energy>
    <i name="e_fr_energy">    -72.69379149 </i>
    <i name="e_wo_entrp">    -72.69379149 </i>
    <i name="e_0_energy">    -72.69379149 </i>
   </energy>
  </scstep>
  <scstep>
   <time name="dav">    0.60    0.60</time>
   <time name="total">    0.65    0.65</time>
   <energy>
    <i name="e_fr_energy">    -72.69378966 </i>
    <i name="e_wo_entrp">    -72.69378966 </i>
    <i name="e_0_energy">    -72.69378966 </i>
   </energy>
  </scstep>
  <scstep>
   <time name="dav">    0.42    0.42</time>
   <time name="total">    0.44    0.44</time>
   <energy>
    <i name="alphaZ">    115.64040005 </i>
    <i name="ewald">  -1394.73810855 </i>
    <i name="hartreedc">   -105.08948611 </i>
    <i name="XCdc">    117.86518600 </i>
    <i name="pawpsdc">    530.76912894 </i>
    <i name="pawaedc">   -540.88393400 </i>
    <i name="eentropy">      0.00000000 </i>
    <i name="bandstr">     26.72523310 </i>
    <i name="atom">   1177.01779097 </i>
    <i name="e_fr_energy">    -72.69378960 </i>
    <i name="e_wo_entrp">    -72.69378960 </i>
    <i name="e_0_energy">    -72.69378960 </i>
   </energy>
  </scstep>
  <structure>
   <crystal>
    <varray name="basis" >
     <v>       3.55937786       0.00000000      -0.00000000 </v>
     <v>      -0.00000000       3.55937786      -0.00000000 </v>
     <v>       0.00000000      -0.00000000       3.55937786 </v>
    </varray>
    <i name="volume">     45.09436575 </i>
    <varray name="rec_basis" >
     <v>       0.28094797       0.00000000      -0.00000000 </v>
     <v>      -0.00000000       0.28094797       0.00000000 </v>
     <v>       0.00000000       0.00000000       0.28094797 </v>
    </varray>
   </crystal>
   <varray name="positions" >
    <v>       0.75669600       0.75669600       0.75669600 </v>
    <v>       0.00669500       0.50669600       0.00669500 </v>
    <v>       0.50669600       0.50669600       0.50669600 </v>
    <v>       0.00669500       0.00669500       0.50669600 </v>
    <v>       0.50669600       0.00669500       0.00669500 </v>
    <v>       0.75669600       0.25669600       0.25669600 </v>
    <v>       0.25669600       0.25669600       0.75669600 </v>
    <v>       0.25669600       0.75669600       0.25669600 </v>
   </varray>
  </structure>
  <varray name="forces" >
   <v>      -0.00000000      -0.00000000      -0.00000000 </v>
   <v>       0.00000000      -0.00000000       0.00000000 </v>
   <v>      -0.00000000       0.00000000       0.00000000 </v>
   <v>       0.00000000       0.00000000      -0.00000000 </v>
   <v>       0.00000000       0.00000000       0.00000000 </v>
   <v>      -0.00000000       0.00000000      -0.00000000 </v>
   <v>      -0.00000000      -0.00000000      -0.00000000 </v>
   <v>      -0.00000000      -0.00000000      -0.00000000 </v>
  </varray>
  <varray name="stress" >
   <v>      -1.04155168      -0.00000000       0.00000000 </v>
   <v>       0.00000000      -1.04155168       0.00000000 </v>
   <v>      -0.00000000       0.00000000      -1.04155168 </v>
  </varray>
  <energy>
   <i name="e_fr_energy">    -72.69378960 </i>
   <i name="e_wo_entrp">    -72.69378960 </i>
   <i name="e_0_energy">      0.00000000 </i>
  </energy>
  <time name="totalsc">    3.93    3.94</time>
  <eigenvalues>
   <array>
    <dimension dim="1">band</dimension>
    <dimension dim="2">kpoint</dimension>
    <dimension dim="3">spin</dimension>
    <field>eigene</field>
    <field>occ</field>
    <set>
     <set comment="spin 1">
      <set comment="kpoint 1">
       <r>  -11.7163    1.0000 </r>
       <r>   -2.9641    1.0000 </r>
       <r>   -2.9641    1.0000 </r>
       <r>   -2.9641    1.0000 </r>
       <r>   -2.9641    1.0000 </r>
       <r>   -2.9640    1.0000 </r>
       <r>   -2.9640    1.0000 </r>
       <r>    3.5146    1.0000 </r>
       <r>    3.5146    1.0000 </r>
       <r>    3.5147    1.0000 </r>
       <r>    3.5147    1.0000 </r>
       <r>    3.5147    1.0000 </r>
       <r>    3.5147    1.0000 </r>
       <r>    9.8670    1.0000 </r>
       <r>    9.8670    1.0000 </r>
       <r>    9.8671    1.0000 </r>
       <r>   14.6255    0.0000 </r>
       <r>   14.6255    0.0000 </r>
       <r>   14.6256    0.0000 </r>
       <r>   14.6256    0.0000 </r>
       <r>   14.6256    0.0000 </r>
       <r>   14.6257    0.0000 </r>
       <r>   15.4720    0.0000 </r>
       <r>   15.4721    0.0000 </r>
       <r>   15.4721    0.0000 </r>
       <r>   23.3103    0.0000 </r>
       <r>   26.8477    0.0000 </r>
       <r>   26.8477    0.0000 </r>
      </set>
      <set comment="kpoint 2">
       <r>  -11.5714    1.0000 </r>
       <r>   -4.8972    1.0000 </r>
       <r>   -2.8728    1.0000 </r>
       <r>   -2.8727    1.0000 </r>
       <r>   -2.8727    1.0000 </r>
       <r>   -2.8727    1.0000 </r>
       <r>   -0.8959    1.0000 </r>
       <r>    3.2037    1.0000 </r>
       <r>    3.2037    1.0000 </r>
       <r>    3.2037    1.0000 </r>
       <r>    3.2037    1.0000 </r>
       <r>    3.6539    1.0000 </r>
       <r>    3.6539    1.0000 </r>
       <r>    9.3066    1.0000 </r>
       <r>    9.3066    1.0000 </r>
       <r>    9.5147    1.0000 </r>
       <r>   14.1647    0.0000 </r>
       <r>   15.2065    0.0000 </r>
       <r>   15.2065    0.0000 </r>
       <r>   15.2065    0.0000 </r>
       <r>   15.2065    0.0000 </r>
       <r>   15.3691    0.0000 </r>
       <r>   15.4171    0.0000 </r>
       <r>   16.1660    0.0000 </r>
       <r>   16.1661    0.0000 </r>
       <r>   23.4079    0.0000 </r>
       <r>   26.3551    0.0000 </r>
       <r>   26.3551    0.0000 </r>
      </set>
      <set comment="kpoint 3">
       <r>  -11.1379    1.0000 </r>
       <r>   -6.6402    1.0000 </r>
       <r>   -2.6238    1.0000 </r>
       <r>   -2.6238    1.0000 </r>
       <r>   -2.6238    1.0000 </r>
       <r>   -2.6237    1.0000 </r>
       <r>    1.2349    1.0000 </r>
       <r>    2.4880    1.0000 </r>
       <r>    2.4880    1.0000 </r>
       <r>    2.4880    1.0000 </r>
       <r>    2.4880    1.0000 </r>
       <r>    4.0730    1.0000 </r>
       <r>    4.0730    1.0000 </r>
       <r>    8.1225    1.0000 </r>
       <r>    8.1225    1.0000 </r>
       <r>    8.5298    1.0000 </r>
       <r>   13.9952    0.0000 </r>
       <r>   15.0581    0.0000 </r>
       <r>   16.5968    0.0000 </r>
       <r>   16.7477    0.0000 </r>
       <r>   16.7477    0.0000 </r>
       <r>   16.7477    0.0000 </r>
       <r>   16.7478    0.0000 </r>
       <r>   17.7215    0.0000 </r>
       <r>   17.7215    0.0000 </r>
       <r>   23.2913    0.0000 </r>
       <r>   25.1125    0.0000 </r>
       <r>   25.1125    0.0000 </r>
      </set>
      <set comment="kpoint 4">
       <r>  -10.4192    1.0000 </r>
       <r>   -8.1566    1.0000 </r>
       <r>   -2.3179    1.0000 </r>
       <r>   -2.3178    1.0000 </r>
       <r>   -2.3178    1.0000 </r>
       <r>   -2.3177    1.0000 </r>
       <r>    1.7778    1.0000 </r>
       <r>    1.7779    1.0000 </r>
       <r>    1.7779    1.0000 </r>
       <r>    1.7779    1.0000 </r>
       <r>    3.3401    1.0000 </r>
       <r>    4.7630    1.0000 </r>
       <r>    4.7630    1.0000 </r>
       <r>    6.8534    1.0000 </r>
       <r>    6.8535    1.0000 </r>
       <r>    7.0863    1.0000 </r>
       <r>   14.0665    0.0000 </r>
       <r>   14.6728    0.0000 </r>
       <r>   18.1911    0.0000 </r>
       <r>   18.8332    0.0000 </r>
       <r>   18.8332    0.0000 </r>
       <r>   18.8333    0.0000 </r>
       <r>   18.8333    0.0000 </r>
       <r>   19.5991    0.0000 </r>
       <r>   19.5991    0.0000 </r>
       <r>   22.1204    0.0000 </r>
       <r>   23.4270    0.0000 </r>
       <r>   23.4270    0.0000 </r>
      </set>
      <set comment="kpoint 5">
       <r>   -9.4221    1.0000 </r>
       <r>   -9.4220    1.0000 </r>
       <r>   -2.1647    1.0000 </r>
       <r>   -2.1647    1.0000 </r>
       <r>   -2.1647    1.0000 </r>
       <r>   -2.1646    1.0000 </r>
       <r>    1.4726    1.0000 </r>
       <r>    1.4726    1.0000 </r>
       <r>    1.4726    1.0000 </r>
       <r>    1.4726    1.0000 </r>
       <r>    5.3187    1.0000 </r>
       <r>    5.3187    1.0000 </r>
       <r>    5.7004    1.0000 </r>
       <r>    5.7004    1.0000 </r>
       <r>    5.7005    1.0000 </r>
       <r>    5.7005    1.0000 </r>
       <r>   14.3101    0.0000 </r>
       <r>   14.3101    0.0000 </r>
       <r>   20.1386    0.0000 </r>
       <r>   20.1387    0.0000 </r>
       <r>   20.5217    0.0000 </r>
       <r>   20.5217    0.0000 </r>
       <r>   20.5218    0.0000 </r>
       <r>   20.5218    0.0000 </r>
       <r>   21.5312    0.0000 </r>
       <r>   21.5312    0.0000 </r>
       <r>   21.5312    0.0000 </r>
       <r>   21.5312    0.0000 </r>
      </set>
      <set comment="kpoint 6">
       <r>  -11.4268    1.0000 </r>
       <r>   -4.7805    1.0000 </r>
       <r>   -4.7805    1.0000 </r>
       <r>   -2.8791    1.0000 </r>
       <r>   -2.7049    1.0000 </r>
       <r>   -0.8580    1.0000 </r>
       <r>   -0.8580    1.0000 </r>
       <r>    2.2361    1.0000 </r>
       <r>    3.3050    1.0000 </r>
       <r>    3.3050    1.0000 </r>
       <r>    3.4124    1.0000 </r>
       <r>    3.4125    1.0000 </r>
       <r>    3.7560    1.0000 </r>
       <r>    8.4322    1.0000 </r>
       <r>    8.7834    1.0000 </r>
       <r>    9.6871    1.0000 </r>
       <r>   14.7665    0.0000 </r>
       <r>   14.7665    0.0000 </r>
       <r>   14.8570    0.0000 </r>
       <r>   15.7732    0.0000 </r>
       <r>   15.9743    0.0000 </r>
       <r>   15.9744    0.0000 </r>
       <r>   16.3132    0.0000 </r>
       <r>   16.5450    0.0000 </r>
       <r>   16.6095    0.0000 </r>
       <r>   23.5360    0.0000 </r>
       <r>   25.8269    0.0000 </r>
       <r>   25.8269    0.0000 </r>
      </set>
      <set comment="kpoint 7">
       <r>  -10.9939    1.0000 </r>
       <r>   -6.5108    1.0000 </r>
       <r>   -4.4414    1.0000 </r>
       <r>   -2.8214    1.0000 </r>
       <r>   -2.3565    1.0000 </r>
       <r>   -0.8049    1.0000 </r>
       <r>    1.1470    1.0000 </r>
       <r>    1.2680    1.0000 </r>
       <r>    2.4835    1.0000 </r>
       <r>    2.9102    1.0000 </r>
       <r>    3.6884    1.0000 </r>
       <r>    3.6993    1.0000 </r>
       <r>    3.9735    1.0000 </r>
       <r>    7.1502    1.0000 </r>
       <r>    7.6484    1.0000 </r>
       <r>    9.0916    1.0000 </r>
       <r>   14.6091    0.0000 </r>
       <r>   15.6395    0.0000 </r>
       <r>   15.6563    0.0000 </r>
       <r>   16.3501    0.0000 </r>
       <r>   17.1163    0.0000 </r>
       <r>   17.4495    0.0000 </r>
       <r>   17.6941    0.0000 </r>
       <r>   17.7734    0.0000 </r>
       <r>   18.5097    0.0000 </r>
       <r>   23.5080    0.0000 </r>
       <r>   24.3933    0.0000 </r>
       <r>   24.4991    0.0000 </r>
      </set>
      <set comment="kpoint 8">
       <r>  -10.2767    1.0000 </r>
       <r>   -8.0204    1.0000 </r>
       <r>   -3.9248    1.0000 </r>
       <r>   -2.9187    1.0000 </r>
       <r>   -1.8596    1.0000 </r>
       <r>   -0.9159    1.0000 </r>
       <r>    0.7293    1.0000 </r>
       <r>    1.5708    1.0000 </r>
       <r>    2.5934    1.0000 </r>
       <r>    2.9554    1.0000 </r>
       <r>    3.2188    1.0000 </r>
       <r>    4.3683    1.0000 </r>
       <r>    4.9680    1.0000 </r>
       <r>    5.7988    1.0000 </r>
       <r>    6.4082    1.0000 </r>
       <r>    7.8767    1.0000 </r>
       <r>   14.6842    0.0000 </r>
       <r>   15.2750    0.0000 </r>
       <r>   17.3455    0.0000 </r>
       <r>   18.5004    0.0000 </r>
       <r>   18.6609    0.0000 </r>
       <r>   19.3480    0.0000 </r>
       <r>   19.3499    0.0000 </r>
       <r>   19.5622    0.0000 </r>
       <r>   20.7366    0.0000 </r>
       <r>   22.4363    0.0000 </r>
       <r>   22.4803    0.0000 </r>
       <r>   22.8574    0.0000 </r>
      </set>
      <set comment="kpoint 9">
       <r>   -9.2818    1.0000 </r>
       <r>   -9.2817    1.0000 </r>
       <r>   -3.3421    1.0000 </r>
       <r>   -3.3420    1.0000 </r>
       <r>   -1.3152    1.0000 </r>
       <r>   -1.3152    1.0000 </r>
       <r>    0.8825    1.0000 </r>
       <r>    0.8825    1.0000 </r>
       <r>    2.7394    1.0000 </r>
       <r>    2.7395    1.0000 </r>
       <r>    4.4480    1.0000 </r>
       <r>    4.4481    1.0000 </r>
       <r>    5.2850    1.0000 </r>
       <r>    5.2850    1.0000 </r>
       <r>    6.3801    1.0000 </r>
       <r>    6.3801    1.0000 </r>
       <r>   14.9254    0.0000 </r>
       <r>   14.9255    0.0000 </r>
       <r>   19.3653    0.0000 </r>
       <r>   19.3654    0.0000 </r>
       <r>   20.5470    0.0000 </r>
       <r>   20.5470    0.0000 </r>
       <r>   20.8110    0.0000 </r>
       <r>   20.8111    0.0000 </r>
       <r>   21.0936    0.0000 </r>
       <r>   21.0936    0.0000 </r>
       <r>   21.5327    0.0000 </r>
       <r>   21.5328    0.0000 </r>
      </set>
      <set comment="kpoint 10">
       <r>  -10.5635    1.0000 </r>
       <r>   -6.1285    1.0000 </r>
       <r>   -6.1285    1.0000 </r>
       <r>   -3.1708    1.0000 </r>
       <r>   -1.9294    1.0000 </r>
       <r>    0.4727    1.0000 </r>
       <r>    0.8066    1.0000 </r>
       <r>    0.8066    1.0000 </r>
       <r>    2.8134    1.0000 </r>
       <r>    2.8134    1.0000 </r>
       <r>    3.8699    1.0000 </r>
       <r>    3.8700    1.0000 </r>
       <r>    4.4580    1.0000 </r>
       <r>    5.8501    1.0000 </r>
       <r>    6.5843    1.0000 </r>
       <r>    9.1051    1.0000 </r>
       <r>   15.5448    0.0000 </r>
       <r>   16.2018    0.0000 </r>
       <r>   16.2018    0.0000 </r>
       <r>   16.6437    0.0000 </r>
       <r>   17.9747    0.0000 </r>
       <r>   18.0874    0.0000 </r>
       <r>   18.4798    0.0000 </r>
       <r>   18.4799    0.0000 </r>
       <r>   20.6597    0.0000 </r>
       <r>   22.9439    0.0000 </r>
       <r>   22.9440    0.0000 </r>
       <r>   23.7692    0.0000 </r>
      </set>
      <set comment="kpoint 11">
       <r>   -9.8506    1.0000 </r>
       <r>   -7.6150    1.0000 </r>
       <r>   -5.5140    1.0000 </r>
       <r>   -3.8578    1.0000 </r>
       <r>   -1.3304    1.0000 </r>
       <r>    0.1740    1.0000 </r>
       <r>    0.4010    1.0000 </r>
       <r>    1.8015    1.0000 </r>
       <r>    2.1185    1.0000 </r>
       <r>    3.4357    1.0000 </r>
       <r>    4.0129    1.0000 </r>
       <r>    4.5455    1.0000 </r>
       <r>    4.6036    1.0000 </r>
       <r>    5.3377    1.0000 </r>
       <r>    5.3953    1.0000 </r>
       <r>    8.3182    1.0000 </r>
       <r>   16.2637    0.0000 </r>
       <r>   16.5181    0.0000 </r>
       <r>   16.7078    0.0000 </r>
       <r>   18.3499    0.0000 </r>
       <r>   18.8538    0.0000 </r>
       <r>   19.5286    0.0000 </r>
       <r>   19.7440    0.0000 </r>
       <r>   19.8273    0.0000 </r>
       <r>   21.5062    0.0000 </r>
       <r>   21.5627    0.0000 </r>
       <r>   22.6808    0.0000 </r>
       <r>   23.0731    0.0000 </r>
      </set>
      <set comment="kpoint 12">
       <r>   -8.8633    1.0000 </r>
       <r>   -8.8632    1.0000 </r>
       <r>   -4.7176    1.0000 </r>
       <r>   -4.7175    1.0000 </r>
       <r>   -0.5965    1.0000 </r>
       <r>   -0.5965    1.0000 </r>
       <r>    0.9280    1.0000 </r>
       <r>    0.9280    1.0000 </r>
       <r>    3.3123    1.0000 </r>
       <r>    3.3123    1.0000 </r>
       <r>    4.3153    1.0000 </r>
       <r>    4.3153    1.0000 </r>
       <r>    4.3426    1.0000 </r>
       <r>    4.3427    1.0000 </r>
       <r>    6.9520    1.0000 </r>
       <r>    6.9520    1.0000 </r>
       <r>   16.4636    0.0000 </r>
       <r>   16.4636    0.0000 </r>
       <r>   18.2555    0.0000 </r>
       <r>   18.2556    0.0000 </r>
       <r>   19.9655    0.0000 </r>
       <r>   19.9655    0.0000 </r>
       <r>   20.6920    0.0000 </r>
       <r>   20.6920    0.0000 </r>
       <r>   21.5255    0.0000 </r>
[...]
        <r>  0.0000  0.0018  0.0070  0.0018  0.0000  0.0000  0.0000  0.0000  0.0000 </r>
        <r>  0.1967  0.0018  0.0000  0.0018  0.0000  0.0000  0.0000  0.0000  0.0000 </r>
        <r>  0.0492  0.0070  0.0018  0.0000  0.0000  0.0000  0.0000  0.0000  0.0000 </r>
        <r>  0.0492  0.0070  0.0018  0.0000  0.0000  0.0000  0.0000  0.0000  0.0000 </r>
        <r>  0.1967  0.0018  0.0000  0.0018  0.0000  0.0000  0.0000  0.0000  0.0000 </r>
        <r>  0.0491  0.0000  0.0018  0.0070  0.0000  0.0000  0.0000  0.0000  0.0000 </r>
       </set>
       <set comment="band 5">
        <r>  0.0000  0.0090  0.0418  0.0120  0.0000  0.0000  0.0000  0.0000  0.0000 </r>
        <r>  0.0114  0.0000  0.0120  0.0418  0.0000  0.0000  0.0000  0.0000  0.0000 </r>
        <r>  0.0000  0.0090  0.0418  0.0120  0.0000  0.0000  0.0000  0.0000  0.0000 </r>
        <r>  0.0530  0.0120  0.0000  0.0090  0.0000  0.0000  0.0000  0.0000  0.0000 </r>
        <r>  0.0152  0.0418  0.0090  0.0000  0.0000  0.0000  0.0000  0.0000  0.0000 </r>
        <r>  0.0152  0.0418  0.0090  0.0000  0.0000  0.0000  0.0000  0.0000  0.0000 </r>
        <r>  0.0530  0.0120  0.0000  0.0090  0.0000  0.0000  0.0000  0.0000  0.0000 </r>
        <r>  0.0114  0.0000  0.0120  0.0418  0.0000  0.0000  0.0000  0.0000  0.0000 </r>
       </set>
       <set comment="band 6">
        <r>  0.0000  0.0329  0.0001  0.0299  0.0000  0.0000  0.0000  0.0000  0.0000 </r>
        <r>  0.0417  0.0000  0.0299  0.0001  0.0000  0.0000  0.0000  0.0000  0.0000 </r>
        <r>  0.0000  0.0329  0.0001  0.0299  0.0000  0.0000  0.0000  0.0000  0.0000 </r>
        <r>  0.0001  0.0299  0.0000  0.0329  0.0000  0.0000  0.0000  0.0000  0.0000 </r>
        <r>  0.0378  0.0001  0.0329  0.0000  0.0000  0.0000  0.0000  0.0000  0.0000 </r>
        <r>  0.0379  0.0001  0.0329  0.0000  0.0000  0.0000  0.0000  0.0000  0.0000 </r>
        <r>  0.0001  0.0299  0.0000  0.0329  0.0000  0.0000  0.0000  0.0000  0.0000 </r>
        <r>  0.0417  0.0000  0.0299  0.0001  0.0000  0.0000  0.0000  0.0000  0.0000 </r>
       </set>
       <set comment="band 7">
        <r>  0.0064  0.0192  0.0192  0.0192  0.0000  0.0000  0.0000  0.0000  0.0000 </r>
        <r>  0.0014  0.0594  0.0011  0.0011  0.0000  0.0000  0.0000  0.0000  0.0000 </r>
        <r>  0.0753  0.0011  0.0011  0.0011  0.0000  0.0000  0.0000  0.0000  0.0000 </r>
        <r>  0.0014  0.0011  0.0594  0.0011  0.0000  0.0000  0.0000  0.0000  0.0000 </r>
        <r>  0.0014  0.0011  0.0011  0.0594  0.0000  0.0000  0.0000  0.0000  0.0000 </r>
        <r>  0.0244  0.0192  0.0192  0.0051  0.0000  0.0000  0.0000  0.0000  0.0000 </r>
        <r>  0.0244  0.0192  0.0051  0.0192  0.0000  0.0000  0.0000  0.0000  0.0000 </r>
        <r>  0.0244  0.0051  0.0192  0.0192  0.0000  0.0000  0.0000  0.0000  0.0000 </r>
       </set>
       <set comment="band 8">
        <r>  0.0732  0.0017  0.0017  0.0017  0.0000  0.0000  0.0000  0.0000  0.0000 </r>
        <r>  0.0251  0.0034  0.0198  0.0198  0.0000  0.0000  0.0000  0.0000  0.0000 </r>
        <r>  0.0043  0.0198  0.0198  0.0198  0.0000  0.0000  0.0000  0.0000  0.0000 </r>
        <r>  0.0251  0.0198  0.0034  0.0198  0.0000  0.0000  0.0000  0.0000  0.0000 </r>
        <r>  0.0251  0.0198  0.0198  0.0034  0.0000  0.0000  0.0000  0.0000  0.0000 </r>
        <r>  0.0021  0.0017  0.0017  0.0577  0.0000  0.0000  0.0000  0.0000  0.0000 </r>
        <r>  0.0021  0.0017  0.0577  0.0017  0.0000  0.0000  0.0000  0.0000  0.0000 </r>
        <r>  0.0021  0.0577  0.0017  0.0017  0.0000  0.0000  0.0000  0.0000  0.0000 </r>
       </set>
       <set comment="band 9">
        <r>  0.0000  0.1135  0.0004  0.1276  0.0000  0.0000  0.0000  0.0000  0.0000 </r>
        <r>  0.0000  0.0770  0.0262  0.0550  0.0000  0.0000  0.0000  0.0000  0.0000 </r>
        <r>  0.0000  0.0102  0.0000  0.0114  0.0000  0.0000  0.0000  0.0000  0.0000 </r>
        <r>  0.0000  0.0030  0.0003  0.0062  0.0000  0.0000  0.0000  0.0000  0.0000 </r>
        <r>  0.0000  0.0579  0.0323  0.0866  0.0000  0.0000  0.0000  0.0000  0.0000 </r>
        <r>  0.0000  0.0000  0.0274  0.0019  0.0000  0.0000  0.0000  0.0000  0.0000 </r>
        <r>  0.0000  0.0328  0.0000  0.0294  0.0000  0.0000  0.0000  0.0000  0.0000 </r>
        <r>  0.0000  0.0017  0.0310  0.0002  0.0000  0.0000  0.0000  0.0000  0.0000 </r>
       </set>
       <set comment="band 10">
        <r>  0.0000  0.0475  0.1606  0.0334  0.0000  0.0000  0.0000  0.0000  0.0000 </r>
        <r>  0.0000  0.0322  0.0340  0.0052  0.0000  0.0000  0.0000  0.0000  0.0000 </r>
        <r>  0.0000  0.0042  0.0144  0.0030  0.0000  0.0000  0.0000  0.0000  0.0000 </r>
        <r>  0.0000  0.0572  0.1090  0.0540  0.0000  0.0000  0.0000  0.0000  0.0000 </r>
        <r>  0.0000  0.0023  0.0280  0.0227  0.0000  0.0000  0.0000  0.0000  0.0000 </r>
        <r>  0.0000  0.0403  0.0129  0.0005  0.0000  0.0000  0.0000  0.0000  0.0000 </r>
        <r>  0.0000  0.0075  0.0024  0.0109  0.0000  0.0000  0.0000  0.0000  0.0000 </r>
        <r>  0.0000  0.0007  0.0093  0.0400  0.0000  0.0000  0.0000  0.0000  0.0000 </r>
       </set>
       <set comment="band 11">
        <r>  0.0000  0.0814  0.0814  0.0814  0.0000  0.0000  0.0000  0.0000  0.0000 </r>
        <r>  0.0000  0.0000  0.0203  0.0203  0.0000  0.0000  0.0000  0.0000  0.0000 </r>
        <r>  0.0000  0.0814  0.0814  0.0814  0.0000  0.0000  0.0000  0.0000  0.0000 </r>
        <r>  0.0000  0.0203  0.0000  0.0203  0.0000  0.0000  0.0000  0.0000  0.0000 </r>
        <r>  0.0000  0.0203  0.0203  0.0000  0.0000  0.0000  0.0000  0.0000  0.0000 </r>
        <r>  0.0000  0.0203  0.0203  0.0000  0.0000  0.0000  0.0000  0.0000  0.0000 </r>
        <r>  0.0000  0.0203  0.0000  0.0203  0.0000  0.0000  0.0000  0.0000  0.0000 </r>
        <r>  0.0000  0.0000  0.0203  0.0203  0.0000  0.0000  0.0000  0.0000  0.0000 </r>
       </set>
       <set comment="band 12">
        <r>  0.0000  0.0000  0.0000  0.0000  0.0000  0.0000  0.0000  0.0000  0.0000 </r>
        <r>  0.0000  0.0000  0.0610  0.0610  0.0000  0.0000  0.0000  0.0000  0.0000 </r>
        <r>  0.0000  0.0000  0.0000  0.0000  0.0000  0.0000  0.0000  0.0000  0.0000 </r>
        <r>  0.0000  0.0610  0.0000  0.0610  0.0000  0.0000  0.0000  0.0000  0.0000 </r>
        <r>  0.0000  0.0610  0.0610  0.0000  0.0000  0.0000  0.0000  0.0000  0.0000 </r>
        <r>  0.0000  0.0610  0.0610  0.0000  0.0000  0.0000  0.0000  0.0000  0.0000 </r>
        <r>  0.0000  0.0610  0.0000  0.0610  0.0000  0.0000  0.0000  0.0000  0.0000 </r>
        <r>  0.0000  0.0000  0.0610  0.0610  0.0000  0.0000  0.0000  0.0000  0.0000 </r>
       </set>
       <set comment="band 13">
        <r>  0.0000  0.0001  0.0000  0.0001  0.0000  0.0000  0.0000  0.0000  0.0000 </r>
        <r>  0.0000  0.0204  0.0228  0.0009  0.0000  0.0000  0.0000  0.0000  0.0000 </r>
        <r>  0.0000  0.1065  0.0000  0.1085  0.0000  0.0000  0.0000  0.0000  0.0000 </r>
        <r>  0.0000  0.0319  0.0000  0.0315  0.0000  0.0000  0.0000  0.0000  0.0000 </r>
        <r>  0.0000  0.0007  0.0222  0.0208  0.0000  0.0000  0.0000  0.0000  0.0000 </r>
        <r>  0.0000  0.0965  0.0231  0.0384  0.0000  0.0000  0.0000  0.0000  0.0000 </r>
        <r>  0.0000  0.0252  0.0000  0.0265  0.0000  0.0000  0.0000  0.0000  0.0000 </r>
        <r>  0.0000  0.0377  0.0218  0.0966  0.0000  0.0000  0.0000  0.0000  0.0000 </r>
       </set>
       <set comment="band 14">
        <r>  0.0000  0.0000  0.0002  0.0000  0.0000  0.0000  0.0000  0.0000  0.0000 </r>
        <r>  0.0000  0.0071  0.0139  0.0357  0.0000  0.0000  0.0000  0.0000  0.0000 </r>
        <r>  0.0000  0.0368  0.1433  0.0349  0.0000  0.0000  0.0000  0.0000  0.0000 </r>
        <r>  0.0000  0.0048  0.0275  0.0052  0.0000  0.0000  0.0000  0.0000  0.0000 </r>
        <r>  0.0000  0.0359  0.0144  0.0067  0.0000  0.0000  0.0000  0.0000  0.0000 </r>
        <r>  0.0000  0.0001  0.0735  0.0123  0.0000  0.0000  0.0000  0.0000  0.0000 </r>
        <r>  0.0000  0.0714  0.0507  0.0701  0.0000  0.0000  0.0000  0.0000  0.0000 </r>
        <r>  0.0000  0.0130  0.0747  0.0000  0.0000  0.0000  0.0000  0.0000  0.0000 </r>
       </set>
       <set comment="band 15">
        <r>  0.0000  0.0011  0.0000  0.0011  0.0000  0.0000  0.0000  0.0000  0.0000 </r>
        <r>  0.0000  0.0805  0.0093  0.0646  0.0000  0.0000  0.0000  0.0000  0.0000 </r>
        <r>  0.0000  0.0037  0.0000  0.0037  0.0000  0.0000  0.0000  0.0000  0.0000 </r>
        <r>  0.0000  0.0249  0.0000  0.0248  0.0000  0.0000  0.0000  0.0000  0.0000 </r>
        <r>  0.0000  0.0646  0.0093  0.0804  0.0000  0.0000  0.0000  0.0000  0.0000 </r>
        <r>  0.0000  0.0254  0.0093  0.1431  0.0000  0.0000  0.0000  0.0000  0.0000 </r>
        <r>  0.0000  0.0040  0.0000  0.0040  0.0000  0.0000  0.0000  0.0000  0.0000 </r>
        <r>  0.0000  0.1433  0.0093  0.0255  0.0000  0.0000  0.0000  0.0000  0.0000 </r>
       </set>
       <set comment="band 16">
        <r>  0.0000  0.0004  0.0015  0.0004  0.0000  0.0000  0.0000  0.0000  0.0000 </r>
        <r>  0.0000  0.0268  0.0565  0.0013  0.0000  0.0000  0.0000  0.0000  0.0000 </r>
        <r>  0.0000  0.0012  0.0050  0.0012  0.0000  0.0000  0.0000  0.0000  0.0000 </r>
        <r>  0.0000  0.0410  0.1073  0.0411  0.0000  0.0000  0.0000  0.0000  0.0000 </r>
        <r>  0.0000  0.0012  0.0566  0.0269  0.0000  0.0000  0.0000  0.0000  0.0000 </r>
        <r>  0.0000  0.0004  0.0165  0.0478  0.0000  0.0000  0.0000  0.0000  0.0000 </r>
        <r>  0.0000  0.0218  0.1909  0.0219  0.0000  0.0000  0.0000  0.0000  0.0000 </r>
        <r>  0.0000  0.0476  0.0165  0.0004  0.0000  0.0000  0.0000  0.0000  0.0000 </r>
       </set>
       <set comment="band 17">
        <r>  0.0000  0.0016  0.0130  0.0055  0.0000  0.0000  0.0000  0.0000  0.0000 </r>
        <r>  0.0000  0.0034  0.0514  0.0078  0.0000  0.0000  0.0000  0.0000  0.0000 </r>
        <r>  0.0000  0.0009  0.0077  0.0033  0.0000  0.0000  0.0000  0.0000  0.0000 </r>
        <r>  0.0000  0.0287  0.0282  0.0515  0.0000  0.0000  0.0000  0.0000  0.0000 </r>
        <r>  0.0000  0.0000  0.0663  0.0119  0.0000  0.0000  0.0000  0.0000  0.0000 </r>
        <r>  0.0000  0.0050  0.0031  0.0580  0.0000  0.0000  0.0000  0.0000  0.0000 </r>
        <r>  0.0000  0.0098  0.1369  0.0091  0.0000  0.0000  0.0000  0.0000  0.0000 </r>
        <r>  0.0000  0.0167  0.0006  0.0019  0.0000  0.0000  0.0000  0.0000  0.0000 </r>
       </set>
       <set comment="band 18">
        <r>  0.0000  0.0118  0.0004  0.0079  0.0000  0.0000  0.0000  0.0000  0.0000 </r>
        <r>  0.0000  0.0256  0.0172  0.0608  0.0000  0.0000  0.0000  0.0000  0.0000 </r>
        <r>  0.0000  0.0070  0.0002  0.0047  0.0000  0.0000  0.0000  0.0000  0.0000 </r>
        <r>  0.0000  0.0399  0.0009  0.0171  0.0000  0.0000  0.0000  0.0000  0.0000 </r>
        <r>  0.0000  0.0685  0.0022  0.0171  0.0000  0.0000  0.0000  0.0000  0.0000 </r>
        <r>  0.0000  0.0048  0.0067  0.0831  0.0000  0.0000  0.0000  0.0000  0.0000 </r>
        <r>  0.0000  0.0000  0.0042  0.0007  0.0000  0.0000  0.0000  0.0000  0.0000 </r>
        <r>  0.0000  0.1244  0.0092  0.0079  0.0000  0.0000  0.0000  0.0000  0.0000 </r>
       </set>
       <set comment="band 19">
        <r>  0.0000  0.0580  0.0580  0.0580  0.0000  0.0000  0.0000  0.0000  0.0000 </r>
        <r>  0.0000  0.0000  0.0145  0.0145  0.0000  0.0000  0.0000  0.0000  0.0000 </r>
        <r>  0.0000  0.0580  0.0580  0.0580  0.0000  0.0000  0.0000  0.0000  0.0000 </r>
        <r>  0.0000  0.0145  0.0000  0.0145  0.0000  0.0000  0.0000  0.0000  0.0000 </r>
        <r>  0.0000  0.0145  0.0145  0.0000  0.0000  0.0000  0.0000  0.0000  0.0000 </r>
        <r>  0.0000  0.0145  0.0145  0.0000  0.0000  0.0000  0.0000  0.0000  0.0000 </r>
        <r>  0.0000  0.0145  0.0000  0.0145  0.0000  0.0000  0.0000  0.0000  0.0000 </r>
        <r>  0.0000  0.0000  0.0145  0.0145  0.0000  0.0000  0.0000  0.0000  0.0000 </r>
       </set>
       <set comment="band 20">
        <r>  0.0000  0.0185  0.0000  0.0185  0.0000  0.0000  0.0000  0.0000  0.0000 </r>
        <r>  0.0000  0.0788  0.0039  0.0029  0.0000  0.0000  0.0000  0.0000  0.0000 </r>
        <r>  0.0000  0.0318  0.0000  0.0317  0.0000  0.0000  0.0000  0.0000  0.0000 </r>
        <r>  0.0000  0.0134  0.0000  0.0134  0.0000  0.0000  0.0000  0.0000  0.0000 </r>
        <r>  0.0000  0.0029  0.0039  0.0786  0.0000  0.0000  0.0000  0.0000  0.0000 </r>
        <r>  0.0000  0.0679  0.0038  0.0011  0.0000  0.0000  0.0000  0.0000  0.0000 </r>
        <r>  0.0000  0.0394  0.0000  0.0392  0.0000  0.0000  0.0000  0.0000  0.0000 </r>
        <r>  0.0000  0.0011  0.0039  0.0678  0.0000  0.0000  0.0000  0.0000  0.0000 </r>
       </set>
       <set comment="band 21">
        <r>  0.0000  0.0061  0.0246  0.0062  0.0000  0.0000  0.0000  0.0000  0.0000 </r>
        <r>  0.0000  0.0261  0.0096  0.0106  0.0000  0.0000  0.0000  0.0000  0.0000 </r>
        <r>  0.0000  0.0105  0.0423  0.0106  0.0000  0.0000  0.0000  0.0000  0.0000 </r>
        <r>  0.0000  0.0000  0.1050  0.0000  0.0000  0.0000  0.0000  0.0000  0.0000 </r>
        <r>  0.0000  0.0106  0.0096  0.0264  0.0000  0.0000  0.0000  0.0000  0.0000 </r>
        <r>  0.0000  0.0061  0.0702  0.0004  0.0000  0.0000  0.0000  0.0000  0.0000 </r>
        <r>  0.0000  0.0346  0.0015  0.0348  0.0000  0.0000  0.0000  0.0000  0.0000 </r>
        <r>  0.0000  0.0004  0.0701  0.0062  0.0000  0.0000  0.0000  0.0000  0.0000 </r>
       </set>
       <set comment="band 22">
        <r>  0.0000  0.0723  0.0052  0.0395  0.0000  0.0000  0.0000  0.0000  0.0000 </r>
        <r>  0.0000  0.0372  0.0340  0.0258  0.0000  0.0000  0.0000  0.0000  0.0000 </r>
        <r>  0.0000  0.0610  0.0044  0.0333  0.0000  0.0000  0.0000  0.0000  0.0000 </r>
        <r>  0.0000  0.0001  0.0027  0.0079  0.0000  0.0000  0.0000  0.0000  0.0000 </r>
        <r>  0.0000  0.0093  0.0252  0.0203  0.0000  0.0000  0.0000  0.0000  0.0000 </r>
        <r>  0.0000  0.0056  0.0270  0.0160  0.0000  0.0000  0.0000  0.0000  0.0000 </r>
        <r>  0.0000  0.0005  0.0021  0.0110  0.0000  0.0000  0.0000  0.0000  0.0000 </r>
        <r>  0.0000  0.0292  0.0319  0.0209  0.0000  0.0000  0.0000  0.0000  0.0000 </r>
       </set>
       <set comment="band 23">
        <r>  0.0000  0.0057  0.0728  0.0385  0.0000  0.0000  0.0000  0.0000  0.0000 </r>
        <r>  0.0000  0.0029  0.0001  0.0083  0.0000  0.0000  0.0000  0.0000  0.0000 </r>
        <r>  0.0000  0.0048  0.0614  0.0325  0.0000  0.0000  0.0000  0.0000  0.0000 </r>
        <r>  0.0000  0.0340  0.0375  0.0262  0.0000  0.0000  0.0000  0.0000  0.0000 </r>
        <r>  0.0000  0.0248  0.0089  0.0198  0.0000  0.0000  0.0000  0.0000  0.0000 </r>
        <r>  0.0000  0.0267  0.0053  0.0156  0.0000  0.0000  0.0000  0.0000  0.0000 </r>
        <r>  0.0000  0.0318  0.0294  0.0213  0.0000  0.0000  0.0000  0.0000  0.0000 </r>
        <r>  0.0000  0.0023  0.0004  0.0114  0.0000  0.0000  0.0000  0.0000  0.0000 </r>
       </set>
       <set comment="band 24">
        <r>  0.0000  0.0000  0.0000  0.0000  0.0000  0.0000  0.0000  0.0000  0.0000 </r>
        <r>  0.0000  0.0000  0.0435  0.0435  0.0000  0.0000  0.0000  0.0000  0.0000 </r>
        <r>  0.0000  0.0000  0.0000  0.0000  0.0000  0.0000  0.0000  0.0000  0.0000 </r>
        <r>  0.0000  0.0435  0.0000  0.0435  0.0000  0.0000  0.0000  0.0000  0.0000 </r>
        <r>  0.0000  0.0435  0.0435  0.0000  0.0000  0.0000  0.0000  0.0000  0.0000 </r>
        <r>  0.0000  0.0435  0.0435  0.0000  0.0000  0.0000  0.0000  0.0000  0.0000 </r>
        <r>  0.0000  0.0435  0.0000  0.0435  0.0000  0.0000  0.0000  0.0000  0.0000 </r>
        <r>  0.0000  0.0000  0.0435  0.0435  0.0000  0.0000  0.0000  0.0000  0.0000 </r>
       </set>
       <set comment="band 25">
        <r>  0.2910  0.0000  0.0000  0.0000  0.0000  0.0000  0.0000  0.0000  0.0000 </r>
        <r>  0.0809  0.0010  0.0016  0.0016  0.0000  0.0000  0.0000  0.0000  0.0000 </r>
        <r>  0.0509  0.0016  0.0016  0.0016  0.0000  0.0000  0.0000  0.0000  0.0000 </r>
        <r>  0.0809  0.0016  0.0010  0.0016  0.0000  0.0000  0.0000  0.0000  0.0000 </r>
        <r>  0.0809  0.0016  0.0016  0.0010  0.0000  0.0000  0.0000  0.0000  0.0000 </r>
        <r>  0.0009  0.0000  0.0000  0.0057  0.0000  0.0000  0.0000  0.0000  0.0000 </r>
        <r>  0.0009  0.0000  0.0057  0.0000  0.0000  0.0000  0.0000  0.0000  0.0000 </r>
        <r>  0.0009  0.0057  0.0000  0.0000  0.0000  0.0000  0.0000  0.0000  0.0000 </r>
       </set>
       <set comment="band 26">
        <r>  0.0026  0.0019  0.0019  0.0019  0.0000  0.0000  0.0000  0.0000  0.0000 </r>
        <r>  0.0170  0.0047  0.0003  0.0003  0.0000  0.0000  0.0000  0.0000  0.0000 </r>
        <r>  0.2427  0.0003  0.0003  0.0003  0.0000  0.0000  0.0000  0.0000  0.0000 </r>
        <r>  0.0170  0.0003  0.0047  0.0003  0.0000  0.0000  0.0000  0.0000  0.0000 </r>
        <r>  0.0170  0.0003  0.0003  0.0047  0.0000  0.0000  0.0000  0.0000  0.0000 </r>
        <r>  0.0970  0.0019  0.0019  0.0001  0.0000  0.0000  0.0000  0.0000  0.0000 </r>
        <r>  0.0970  0.0019  0.0001  0.0019  0.0000  0.0000  0.0000  0.0000  0.0000 </r>
        <r>  0.0970  0.0001  0.0019  0.0019  0.0000  0.0000  0.0000  0.0000  0.0000 </r>
       </set>
       <set comment="band 27">
        <r>  0.0000  0.0010  0.0038  0.0009  0.0000  0.0000  0.0000  0.0000  0.0000 </r>
        <r>  0.0508  0.0000  0.0009  0.0038  0.0000  0.0000  0.0000  0.0000  0.0000 </r>
        <r>  0.0000  0.0010  0.0038  0.0009  0.0000  0.0000  0.0000  0.0000  0.0000 </r>
        <r>  0.1957  0.0009  0.0000  0.0010  0.0000  0.0000  0.0000  0.0000  0.0000 </r>
        <r>  0.0471  0.0038  0.0010  0.0000  0.0000  0.0000  0.0000  0.0000  0.0000 </r>
        <r>  0.0471  0.0038  0.0010  0.0000  0.0000  0.0000  0.0000  0.0000  0.0000 </r>
        <r>  0.1957  0.0009  0.0000  0.0010  0.0000  0.0000  0.0000  0.0000  0.0000 </r>
        <r>  0.0508  0.0000  0.0009  0.0038  0.0000  0.0000  0.0000  0.0000  0.0000 </r>
       </set>
       <set comment="band 28">
        <r>  0.0000  0.0028  0.0000  0.0029  0.0000  0.0000  0.0000  0.0000  0.0000 </r>
        <r>  0.1449  0.0000  0.0029  0.0000  0.0000  0.0000  0.0000  0.0000  0.0000 </r>
        <r>  0.0000  0.0028  0.0000  0.0029  0.0000  0.0000  0.0000  0.0000  0.0000 </r>
        <r>  0.0001  0.0029  0.0000  0.0028  0.0000  0.0000  0.0000  0.0000  0.0000 </r>
        <r>  0.1487  0.0000  0.0028  0.0000  0.0000  0.0000  0.0000  0.0000  0.0000 </r>
        <r>  0.1487  0.0000  0.0028  0.0000  0.0000  0.0000  0.0000  0.0000  0.0000 </r>
        <r>  0.0001  0.0029  0.0000  0.0028  0.0000  0.0000  0.0000  0.0000  0.0000 </r>
        <r>  0.1449  0.0000  0.0029  0.0000  0.0000  0.0000  0.0000  0.0000  0.0000 </r>
       </set>
      </set>
     </set>
    </set>
   </array>
  </projected>
 </calculation>
 <structure name="finalpos" >
  <crystal>
   <varray name="basis" >
    <v>       3.55937786       0.00000000      -0.00000000 </v>
    <v>      -0.00000000       3.55937786      -0.00000000 </v>
    <v>       0.00000000      -0.00000000       3.55937786 </v>
   </varray>
   <i name="volume">     45.09436575 </i>
   <varray name="rec_basis" >
    <v>       0.28094797       0.00000000      -0.00000000 </v>
    <v>      -0.00000000       0.28094797       0.00000000 </v>
    <v>       0.00000000       0.00000000       0.28094797 </v>
   </varray>
  </crystal>
  <varray name="positions" >
   <v>       0.75669600       0.75669600       0.75669600 </v>
   <v>       0.00669500       0.50669600       0.00669500 </v>
   <v>       0.50669600       0.50669600       0.50669600 </v>
   <v>       0.00669500       0.00669500       0.50669600 </v>
   <v>       0.50669600       0.00669500       0.00669500 </v>
   <v>       0.75669600       0.25669600       0.25669600 </v>
   <v>       0.25669600       0.25669600       0.75669600 </v>
   <v>       0.25669600       0.75669600       0.25669600 </v>
  </varray>
 </structure>
</modeling>
