unknown system                          
            1
     3.511887   -0.000000   -0.000000
     0.000000    3.511887   -0.000000
     0.000000    0.000000    3.511887
   C 
   8
Direct configuration=     1
   0.75669600  0.75669600  0.75669600
   0.00669500  0.50669600  0.00669500
   0.50669600  0.50669600  0.50669600
   0.00669500  0.00669500  0.50669600
   0.50669600  0.00669500  0.00669500
   0.75669600  0.25669600  0.25669600
   0.25669600  0.25669600  0.75669600
   0.25669600  0.75669600  0.25669600
unknown system                          
            1
     3.515450    0.000000   -0.000000
    -0.000000    3.515450   -0.000000
     0.000000   -0.000000    3.515450
   C 
   8
Direct configuration=     2
   0.75669600  0.75669600  0.75669600
   0.00669500  0.50669600  0.00669500
   0.50669600  0.50669600  0.50669600
   0.00669500  0.00669500  0.50669600
   0.50669600  0.00669500  0.00669500
   0.75669600  0.25669600  0.25669600
   0.25669600  0.25669600  0.75669600
   0.25669600  0.75669600  0.25669600
unknown system                          
            1
     3.526140    0.000000   -0.000000
    -0.000000    3.526140   -0.000000
     0.000000   -0.000000    3.526140
   C 
   8
Direct configuration=     3
   0.75669600  0.75669600  0.75669600
   0.00669500  0.50669600  0.00669500
   0.50669600  0.50669600  0.50669600
   0.00669500  0.00669500  0.50669600
   0.50669600  0.00669500  0.00669500
   0.75669600  0.25669600  0.25669600
   0.25669600  0.25669600  0.75669600
   0.25669600  0.75669600  0.25669600
unknown system                          
            1
     3.547520    0.000000   -0.000000
    -0.000000    3.547520   -0.000000
     0.000000   -0.000000    3.547520
   C 
   8
Direct configuration=     4
   0.75669600  0.75669600  0.75669600
   0.00669500  0.50669600  0.00669500
   0.50669600  0.50669600  0.50669600
   0.00669500  0.00669500  0.50669600
   0.50669600  0.00669500  0.00669500
   0.75669600  0.25669600  0.25669600
   0.25669600  0.25669600  0.75669600
   0.25669600  0.75669600  0.25669600
unknown system                          
            1
     3.590279    0.000000   -0.000000
    -0.000000    3.590279   -0.000000
     0.000000   -0.000000    3.590279
   C 
   8
Direct configuration=     5
   0.75669600  0.75669600  0.75669600
   0.00669500  0.50669600  0.00669500
   0.50669600  0.50669600  0.50669600
   0.00669500  0.00669500  0.50669600
   0.50669600  0.00669500  0.00669500
   0.75669600  0.25669600  0.25669600
   0.25669600  0.25669600  0.75669600
   0.25669600  0.75669600  0.25669600
unknown system                          
            1
     3.559378    0.000000   -0.000000
    -0.000000    3.559378   -0.000000
     0.000000   -0.000000    3.559378
   C 
   8
Direct configuration=     6
   0.75669600  0.75669600  0.75669600
   0.00669500  0.50669600  0.00669500
   0.50669600  0.50669600  0.50669600
   0.00669500  0.00669500  0.50669600
   0.50669600  0.00669500  0.00669500
   0.75669600  0.25669600  0.25669600
   0.25669600  0.25669600  0.75669600
   0.25669600  0.75669600  0.25669600
