       N       E                     dE             d eps       ncg     rms          rms(c)
DAV:   1    -0.187118871814E+04   -0.18712E+04   -0.89773E+04  2624   0.938E+02
DAV:   2    -0.257938440661E+04   -0.70820E+03   -0.65453E+03  2128   0.290E+02
DAV:   3    -0.262119705803E+04   -0.41813E+02   -0.41104E+02  2816   0.644E+01
DAV:   4    -0.262276160141E+04   -0.15645E+01   -0.15510E+01  2992   0.122E+01
DAV:   5    -0.262282175180E+04   -0.60150E-01   -0.59938E-01  2736   0.215E+00    0.130E+02
RMM:   6    -0.124064498380E+04    0.13822E+04   -0.38847E+02  1792   0.502E+01    0.770E+01
RMM:   7    -0.305724133397E+03    0.93492E+03   -0.15530E+03  1802   0.838E+01    0.247E+01
RMM:   8    -0.314645624899E+03   -0.89215E+01   -0.44210E+01  1792   0.177E+01    0.131E+01
RMM:   9    -0.294748570238E+03    0.19897E+02   -0.72708E+01  1792   0.156E+01    0.240E+00
RMM:  10    -0.295458273071E+03   -0.70970E+00   -0.18706E+00  1796   0.349E+00    0.244E+00
RMM:  11    -0.295249000721E+03    0.20927E+00   -0.11510E+00  1792   0.235E+00    0.533E-01
RMM:  12    -0.295311203553E+03   -0.62203E-01   -0.77074E-02  1797   0.784E-01    0.234E-01
RMM:  13    -0.295312356491E+03   -0.11529E-02   -0.60590E-03  1792   0.203E-01    0.756E-02
RMM:  14    -0.295312662975E+03   -0.30648E-03   -0.65821E-04  1792   0.680E-02    0.270E-02
RMM:  15    -0.295312687977E+03   -0.25003E-04   -0.80682E-05  1793   0.247E-02    0.954E-03
RMM:  16    -0.295312695197E+03   -0.72192E-05   -0.93037E-06  1686   0.938E-03    0.204E-03
RMM:  17    -0.295312695952E+03   -0.75591E-06   -0.66507E-07  1284   0.229E-03
   1 F= -.14125699E+03 E0= -.14125699E+03  d E =0.000000E+00  mag=    -0.0000
 Linear response reoptimize wavefunctions
DAV:   1    -0.295312695924E+03   -0.15406E+03   -0.33621E-07  2336   0.150E-03
DAV:   2    -0.295312695925E+03   -0.18126E-08   -0.16864E-08  1776   0.294E-04
DAV:   3    -0.295312695925E+03    0.31741E-09   -0.63636E-10  1760   0.775E-05
 Linear response DOF=            4
 Linear response progress:
  Degree of freedom:   1/  4
       N       E                     dE             d eps       ncg     rms          rms(c)
RMM:   1    -0.156394434074E+00   -0.15639E+00    0.30867E-02 11926   0.949E-01
RMM:   2    -0.128763722261E+00    0.27631E-01   -0.78172E-03  6914   0.209E-01    0.247E-01
RMM:   3    -0.127959014676E+00    0.80471E-03   -0.21251E-03  7870   0.860E-02    0.114E-01
RMM:   4    -0.128344715161E+00   -0.38570E-03   -0.19213E-04  8301   0.369E-02    0.420E-02
RMM:   5    -0.128612425366E+00   -0.26771E-03    0.65337E-05  8432   0.181E-02    0.815E-03
RMM:   6    -0.128609429200E+00    0.29962E-05   -0.15516E-04  8790   0.102E-02    0.149E-03
RMM:   7    -0.128602287568E+00    0.71416E-05   -0.12307E-04  8953   0.949E-03    0.532E-04
RMM:   8    -0.128598216343E+00    0.40712E-05   -0.10745E-04  8925   0.946E-03    0.206E-04
 Linear response progress:
  Degree of freedom:   2/  4
       N       E                     dE             d eps       ncg     rms          rms(c)
RMM:   1    -0.125317074235E+00   -0.12532E+00    0.60341E-03  3653   0.688E-01
RMM:   2    -0.122603085191E+00    0.27140E-02   -0.24710E-03  2833   0.119E-01    0.171E-01
RMM:   3    -0.122447216013E+00    0.15587E-03   -0.41035E-04  2838   0.447E-02    0.904E-02
RMM:   4    -0.122640228880E+00   -0.19301E-03   -0.33247E-04  2926   0.391E-02    0.146E-02
RMM:   5    -0.122507418231E+00    0.13281E-03   -0.99053E-05  3407   0.139E-02    0.236E-03
RMM:   6    -0.122497990385E+00    0.94278E-05   -0.89918E-05  3549   0.106E-02    0.685E-04
RMM:   7    -0.122490603545E+00    0.73868E-05   -0.89270E-05  3577   0.104E-02    0.270E-04
RMM:   8    -0.122490558786E+00    0.44759E-07   -0.90240E-05  3583   0.104E-02    0.156E-04
 Linear response progress:
  Degree of freedom:   3/  4
       N       E                     dE             d eps       ncg     rms          rms(c)
RMM:   1    -0.156513495416E+00   -0.15651E+00    0.29489E-02 11890   0.949E-01
RMM:   2    -0.128464063477E+00    0.28049E-01   -0.61856E-03  6961   0.209E-01    0.247E-01
RMM:   3    -0.127920575011E+00    0.54349E-03   -0.30286E-03  7867   0.861E-02    0.114E-01
RMM:   4    -0.128228734469E+00   -0.30816E-03   -0.26639E-04  8295   0.368E-02    0.420E-02
RMM:   5    -0.128489421840E+00   -0.26069E-03    0.60356E-05  8487   0.179E-02    0.814E-03
RMM:   6    -0.128480846647E+00    0.85752E-05   -0.12670E-04  8795   0.982E-03    0.150E-03
RMM:   7    -0.128458152193E+00    0.22694E-04    0.47811E-05  8949   0.907E-03    0.527E-04
RMM:   8    -0.128452855869E+00    0.52963E-05    0.64598E-05  8923   0.903E-03    0.194E-04
 Linear response progress:
  Degree of freedom:   4/  4
       N       E                     dE             d eps       ncg     rms          rms(c)
RMM:   1    -0.125440745808E+00   -0.12544E+00    0.55377E-03  3664   0.688E-01
RMM:   2    -0.122706697481E+00    0.27340E-02   -0.24244E-03  2808   0.119E-01    0.171E-01
RMM:   3    -0.122547070472E+00    0.15963E-03   -0.39139E-04  2802   0.448E-02    0.903E-02
RMM:   4    -0.122739135921E+00   -0.19207E-03   -0.31677E-04  2887   0.391E-02    0.146E-02
RMM:   5    -0.122610162984E+00    0.12897E-03   -0.77908E-05  3392   0.133E-02    0.238E-03
RMM:   6    -0.122600977688E+00    0.91853E-05   -0.71008E-05  3574   0.993E-03    0.645E-04
RMM:   7    -0.122593979154E+00    0.69985E-05   -0.68157E-05  3587   0.973E-03    0.254E-04
RMM:   8    -0.122595266898E+00   -0.12877E-05   -0.70386E-05  3594   0.973E-03    0.135E-04
 Linear response finished
