PROCAR lm decomposed
# of k-points:    4         # of bands:  112         # of ions:   32

 k-point     1 :    0.00000000 0.00000000 0.00000000     weight = 0.06250000

band     1 # energy  -16.09827731 # occ.  1.00000000
 
ion      s     py     pz     px    dxy    dyz    dz2    dxz  x2-y2    tot
    1  0.020  0.000  0.000  0.000  0.000  0.000  0.000  0.000  0.000  0.020
    2  0.020  0.000  0.000  0.000  0.000  0.000  0.000  0.000  0.000  0.020
    3  0.020  0.000  0.000  0.000  0.000  0.000  0.000  0.000  0.000  0.020
    4  0.020  0.000  0.000  0.000  0.000  0.000  0.000  0.000  0.000  0.020
    5  0.020  0.000  0.000  0.000  0.000  0.000  0.000  0.000  0.000  0.020
    6  0.020  0.000  0.000  0.000  0.000  0.000  0.000  0.000  0.000  0.020
    7  0.020  0.000  0.000  0.000  0.000  0.000  0.000  0.000  0.000  0.020
    8  0.020  0.000  0.000  0.000  0.000  0.000  0.000  0.000  0.000  0.020
    9  0.020  0.000  0.000  0.000  0.000  0.000  0.000  0.000  0.000  0.020
   10  0.020  0.000  0.000  0.000  0.000  0.000  0.000  0.000  0.000  0.020
   11  0.020  0.000  0.000  0.000  0.000  0.000  0.000  0.000  0.000  0.020
   12  0.020  0.000  0.000  0.000  0.000  0.000  0.000  0.000  0.000  0.020
   13  0.020  0.000  0.000  0.000  0.000  0.000  0.000  0.000  0.000  0.020
   14  0.020  0.000  0.000  0.000  0.000  0.000  0.000  0.000  0.000  0.020
   15  0.020  0.000  0.000  0.000  0.000  0.000  0.000  0.000  0.000  0.020
   16  0.020  0.000  0.000  0.000  0.000  0.000  0.000  0.000  0.000  0.020
   17  0.020  0.000  0.000  0.000  0.000  0.000  0.000  0.000  0.000  0.020
   18  0.020  0.000  0.000  0.000  0.000  0.000  0.000  0.000  0.000  0.020
   19  0.020  0.000  0.000  0.000  0.000  0.000  0.000  0.000  0.000  0.020
   20  0.020  0.000  0.000  0.000  0.000  0.000  0.000  0.000  0.000  0.020
   21  0.020  0.000  0.000  0.000  0.000  0.000  0.000  0.000  0.000  0.020
   22  0.020  0.000  0.000  0.000  0.000  0.000  0.000  0.000  0.000  0.020
   23  0.020  0.000  0.000  0.000  0.000  0.000  0.000  0.000  0.000  0.020
   24  0.020  0.000  0.000  0.000  0.000  0.000  0.000  0.000  0.000  0.020
   25  0.020  0.000  0.000  0.000  0.000  0.000  0.000  0.000  0.000  0.020
   26  0.020  0.000  0.000  0.000  0.000  0.000  0.000  0.000  0.000  0.020
   27  0.020  0.000  0.000  0.000  0.000  0.000  0.000  0.000  0.000  0.020
   28  0.020  0.000  0.000  0.000  0.000  0.000  0.000  0.000  0.000  0.020
   29  0.020  0.000  0.000  0.000  0.000  0.000  0.000  0.000  0.000  0.020
   30  0.020  0.000  0.000  0.000  0.000  0.000  0.000  0.000  0.000  0.020
   31  0.020  0.000  0.000  0.000  0.000  0.000  0.000  0.000  0.000  0.020
   32  0.020  0.000  0.000  0.000  0.000  0.000  0.000  0.000  0.000  0.020
tot    0.642  0.000  0.000  0.000  0.000  0.000  0.000  0.000  0.000  0.642
 
band     2 # energy  -16.05679072 # occ.  1.00000000
 
ion      s     py     pz     px    dxy    dyz    dz2    dxz  x2-y2    tot
    1  0.021  0.000  0.000  0.000  0.000  0.000  0.000  0.000  0.000  0.021
    2  0.021  0.000  0.000  0.000  0.000  0.000  0.000  0.000  0.000  0.021
    3  0.021  0.000  0.000  0.000  0.000  0.000  0.000  0.000  0.000  0.021
    4  0.021  0.000  0.000  0.000  0.000  0.000  0.000  0.000  0.000  0.021
    5  0.021  0.000  0.000  0.000  0.000  0.000  0.000  0.000  0.000  0.021
    6  0.021  0.000  0.000  0.000  0.000  0.000  0.000  0.000  0.000  0.021
    7  0.021  0.000  0.000  0.000  0.000  0.000  0.000  0.000  0.000  0.021
    8  0.021  0.000  0.000  0.000  0.000  0.000  0.000  0.000  0.000  0.021
    9  0.020  0.000  0.000  0.000  0.000  0.000  0.000  0.000  0.000  0.020
   10  0.020  0.000  0.000  0.000  0.000  0.000  0.000  0.000  0.000  0.020
   11  0.020  0.000  0.000  0.000  0.000  0.000  0.000  0.000  0.000  0.020
   12  0.020  0.000  0.000  0.000  0.000  0.000  0.000  0.000  0.000  0.020
   13  0.020  0.000  0.000  0.000  0.000  0.000  0.000  0.000  0.000  0.020
   14  0.020  0.000  0.000  0.000  0.000  0.000  0.000  0.000  0.000  0.020
   15  0.020  0.000  0.000  0.000  0.000  0.000  0.000  0.000  0.000  0.020
   16  0.020  0.000  0.000  0.000  0.000  0.000  0.000  0.000  0.000  0.020
   17  0.021  0.000  0.000  0.000  0.000  0.000  0.000  0.000  0.000  0.021
   18  0.021  0.000  0.000  0.000  0.000  0.000  0.000  0.000  0.000  0.021
   19  0.021  0.000  0.000  0.000  0.000  0.000  0.000  0.000  0.000  0.021
   20  0.021  0.000  0.000  0.000  0.000  0.000  0.000  0.000  0.000  0.021
   21  0.021  0.000  0.000  0.000  0.000  0.000  0.000  0.000  0.000  0.021
   22  0.021  0.000  0.000  0.000  0.000  0.000  0.000  0.000  0.000  0.021
   23  0.021  0.000  0.000  0.000  0.000  0.000  0.000  0.000  0.000  0.021
   24  0.021  0.000  0.000  0.000  0.000  0.000  0.000  0.000  0.000  0.021
   25  0.020  0.000  0.000  0.000  0.000  0.000  0.000  0.000  0.000  0.020
   26  0.020  0.000  0.000  0.000  0.000  0.000  0.000  0.000  0.000  0.020
   27  0.020  0.000  0.000  0.000  0.000  0.000  0.000  0.000  0.000  0.020
   28  0.020  0.000  0.000  0.000  0.000  0.000  0.000  0.000  0.000  0.020
   29  0.020  0.000  0.000  0.000  0.000  0.000  0.000  0.000  0.000  0.020
   30  0.020  0.000  0.000  0.000  0.000  0.000  0.000  0.000  0.000  0.020
   31  0.020  0.000  0.000  0.000  0.000  0.000  0.000  0.000  0.000  0.020
   32  0.020  0.000  0.000  0.000  0.000  0.000  0.000  0.000  0.000  0.020
tot    0.646  0.000  0.000  0.000  0.000  0.000  0.000  0.000  0.000  0.646
 
band     3 # energy  -16.05679072 # occ.  1.00000000
 
ion      s     py     pz     px    dxy    dyz    dz2    dxz  x2-y2    tot
    1  0.020  0.000  0.000  0.000  0.000  0.000  0.000  0.000  0.000  0.020
    2  0.020  0.000  0.000  0.000  0.000  0.000  0.000  0.000  0.000  0.020
    3  0.020  0.000  0.000  0.000  0.000  0.000  0.000  0.000  0.000  0.020
    4  0.020  0.000  0.000  0.000  0.000  0.000  0.000  0.000  0.000  0.020
    5  0.020  0.000  0.000  0.000  0.000  0.000  0.000  0.000  0.000  0.020
    6  0.020  0.000  0.000  0.000  0.000  0.000  0.000  0.000  0.000  0.020
    7  0.020  0.000  0.000  0.000  0.000  0.000  0.000  0.000  0.000  0.020
    8  0.020  0.000  0.000  0.000  0.000  0.000  0.000  0.000  0.000  0.020
    9  0.021  0.000  0.000  0.000  0.000  0.000  0.000  0.000  0.000  0.021
   10  0.021  0.000  0.000  0.000  0.000  0.000  0.000  0.000  0.000  0.021
   11  0.021  0.000  0.000  0.000  0.000  0.000  0.000  0.000  0.000  0.021
   12  0.021  0.000  0.000  0.000  0.000  0.000  0.000  0.000  0.000  0.021
   13  0.021  0.000  0.000  0.000  0.000  0.000  0.000  0.000  0.000  0.021
   14  0.021  0.000  0.000  0.000  0.000  0.000  0.000  0.000  0.000  0.021
   15  0.021  0.000  0.000  0.000  0.000  0.000  0.000  0.000  0.000  0.021
   16  0.021  0.000  0.000  0.000  0.000  0.000  0.000  0.000  0.000  0.021
   17  0.020  0.000  0.000  0.000  0.000  0.000  0.000  0.000  0.000  0.020
   18  0.020  0.000  0.000  0.000  0.000  0.000  0.000  0.000  0.000  0.020
   19  0.020  0.000  0.000  0.000  0.000  0.000  0.000  0.000  0.000  0.020
   20  0.020  0.000  0.000  0.000  0.000  0.000  0.000  0.000  0.000  0.020
   21  0.020  0.000  0.000  0.000  0.000  0.000  0.000  0.000  0.000  0.020
   22  0.020  0.000  0.000  0.000  0.000  0.000  0.000  0.000  0.000  0.020
   23  0.020  0.000  0.000  0.000  0.000  0.000  0.000  0.000  0.000  0.020
   24  0.020  0.000  0.000  0.000  0.000  0.000  0.000  0.000  0.000  0.020
   25  0.021  0.000  0.000  0.000  0.000  0.000  0.000  0.000  0.000  0.021
   26  0.021  0.000  0.000  0.000  0.000  0.000  0.000  0.000  0.000  0.021
   27  0.021  0.000  0.000  0.000  0.000  0.000  0.000  0.000  0.000  0.021
   28  0.021  0.000  0.000  0.000  0.000  0.000  0.000  0.000  0.000  0.021
   29  0.021  0.000  0.000  0.000  0.000  0.000  0.000  0.000  0.000  0.021
   30  0.021  0.000  0.000  0.000  0.000  0.000  0.000  0.000  0.000  0.021
   31  0.021  0.000  0.000  0.000  0.000  0.000  0.000  0.000  0.000  0.021
   32  0.021  0.000  0.000  0.000  0.000  0.000  0.000  0.000  0.000  0.021
tot    0.646  0.000  0.000  0.000  0.000  0.000  0.000  0.000  0.000  0.646
 
band     4 # energy  -16.01445150 # occ.  1.00000000
 
ion      s     py     pz     px    dxy    dyz    dz2    dxz  x2-y2    tot
    1  0.020  0.000  0.000  0.000  0.000  0.000  0.000  0.000  0.000  0.020
    2  0.020  0.000  0.000  0.000  0.000  0.000  0.000  0.000  0.000  0.020
    3  0.020  0.000  0.000  0.000  0.000  0.000  0.000  0.000  0.000  0.020
    4  0.020  0.000  0.000  0.000  0.000  0.000  0.000  0.000  0.000  0.020
    5  0.020  0.000  0.000  0.000  0.000  0.000  0.000  0.000  0.000  0.020
    6  0.020  0.000  0.000  0.000  0.000  0.000  0.000  0.000  0.000  0.020
    7  0.020  0.000  0.000  0.000  0.000  0.000  0.000  0.000  0.000  0.020
    8  0.020  0.000  0.000  0.000  0.000  0.000  0.000  0.000  0.000  0.020
    9  0.020  0.000  0.000  0.000  0.000  0.000  0.000  0.000  0.000  0.020
   10  0.020  0.000  0.000  0.000  0.000  0.000  0.000  0.000  0.000  0.020
   11  0.020  0.000  0.000  0.000  0.000  0.000  0.000  0.000  0.000  0.020
   12  0.020  0.000  0.000  0.000  0.000  0.000  0.000  0.000  0.000  0.020
   13  0.020  0.000  0.000  0.000  0.000  0.000  0.000  0.000  0.000  0.020
   14  0.020  0.000  0.000  0.000  0.000  0.000  0.000  0.000  0.000  0.020
   15  0.020  0.000  0.000  0.000  0.000  0.000  0.000  0.000  0.000  0.020
   16  0.020  0.000  0.000  0.000  0.000  0.000  0.000  0.000  0.000  0.020
   17  0.020  0.000  0.000  0.000  0.000  0.000  0.000  0.000  0.000  0.020
   18  0.020  0.000  0.000  0.000  0.000  0.000  0.000  0.000  0.000  0.020
   19  0.020  0.000  0.000  0.000  0.000  0.000  0.000  0.000  0.000  0.020
   20  0.020  0.000  0.000  0.000  0.000  0.000  0.000  0.000  0.000  0.020
   21  0.020  0.000  0.000  0.000  0.000  0.000  0.000  0.000  0.000  0.020
   22  0.020  0.000  0.000  0.000  0.000  0.000  0.000  0.000  0.000  0.020
   23  0.020  0.000  0.000  0.000  0.000  0.000  0.000  0.000  0.000  0.020
   24  0.020  0.000  0.000  0.000  0.000  0.000  0.000  0.000  0.000  0.020
   25  0.020  0.000  0.000  0.000  0.000  0.000  0.000  0.000  0.000  0.020
   26  0.020  0.000  0.000  0.000  0.000  0.000  0.000  0.000  0.000  0.020
   27  0.020  0.000  0.000  0.000  0.000  0.000  0.000  0.000  0.000  0.020
   28  0.020  0.000  0.000  0.000  0.000  0.000  0.000  0.000  0.000  0.020
   29  0.020  0.000  0.000  0.000  0.000  0.000  0.000  0.000  0.000  0.020
   30  0.020  0.000  0.000  0.000  0.000  0.000  0.000  0.000  0.000  0.020
   31  0.020  0.000  0.000  0.000  0.000  0.000  0.000  0.000  0.000  0.020
   32  0.020  0.000  0.000  0.000  0.000  0.000  0.000  0.000  0.000  0.020
tot    0.650  0.000  0.000  0.000  0.000  0.000  0.000  0.000  0.000  0.650
 
band     5 # energy  -10.83726766 # occ.  1.00000000
 
ion      s     py     pz     px    dxy    dyz    dz2    dxz  x2-y2    tot
    1  0.019  0.004  0.000  0.000  0.000  0.000  0.000  0.000  0.000  0.023
    2  0.019  0.004  0.000  0.000  0.000  0.000  0.000  0.000  0.000  0.023
    3  0.019  0.004  0.000  0.000  0.000  0.000  0.000  0.000  0.000  0.023
    4  0.019  0.004  0.000  0.000  0.000  0.000  0.000  0.000  0.000  0.023
    5  0.019  0.004  0.000  0.000  0.000  0.000  0.000  0.000  0.000  0.023
    6  0.019  0.004  0.000  0.000  0.000  0.000  0.000  0.000  0.000  0.023
    7  0.019  0.004  0.000  0.000  0.000  0.000  0.000  0.000  0.000  0.023
    8  0.019  0.004  0.000  0.000  0.000  0.000  0.000  0.000  0.000  0.023
    9  0.019  0.004  0.000  0.000  0.000  0.000  0.000  0.000  0.000  0.023
   10  0.019  0.004  0.000  0.000  0.000  0.000  0.000  0.000  0.000  0.023
   11  0.019  0.004  0.000  0.000  0.000  0.000  0.000  0.000  0.000  0.023
   12  0.019  0.004  0.000  0.000  0.000  0.000  0.000  0.000  0.000  0.023
   13  0.019  0.004  0.000  0.000  0.000  0.000  0.000  0.000  0.000  0.023
   14  0.019  0.004  0.000  0.000  0.000  0.000  0.000  0.000  0.000  0.023
   15  0.019  0.004  0.000  0.000  0.000  0.000  0.000  0.000  0.000  0.023
   16  0.019  0.004  0.000  0.000  0.000  0.000  0.000  0.000  0.000  0.023
   17  0.018  0.004  0.000  0.000  0.000  0.000  0.000  0.000  0.000  0.022
   18  0.018  0.004  0.000  0.000  0.000  0.000  0.000  0.000  0.000  0.022
   19  0.018  0.004  0.000  0.000  0.000  0.000  0.000  0.000  0.000  0.022
   20  0.018  0.004  0.000  0.000  0.000  0.000  0.000  0.000  0.000  0.022
   21  0.018  0.004  0.000  0.000  0.000  0.000  0.000  0.000  0.000  0.022
   22  0.018  0.004  0.000  0.000  0.000  0.000  0.000  0.000  0.000  0.022
   23  0.018  0.004  0.000  0.000  0.000  0.000  0.000  0.000  0.000  0.022
   24  0.018  0.004  0.000  0.000  0.000  0.000  0.000  0.000  0.000  0.022
   25  0.018  0.004  0.000  0.000  0.000  0.000  0.000  0.000  0.000  0.022
   26  0.018  0.004  0.000  0.000  0.000  0.000  0.000  0.000  0.000  0.022
   27  0.018  0.004  0.000  0.000  0.000  0.000  0.000  0.000  0.000  0.022
   28  0.018  0.004  0.000  0.000  0.000  0.000  0.000  0.000  0.000  0.022
   29  0.018  0.004  0.000  0.000  0.000  0.000  0.000  0.000  0.000  0.022
   30  0.018  0.004  0.000  0.000  0.000  0.000  0.000  0.000  0.000  0.022
   31  0.018  0.004  0.000  0.000  0.000  0.000  0.000  0.000  0.000  0.022
   32  0.018  0.004  0.000  0.000  0.000  0.000  0.000  0.000  0.000  0.022
tot    0.599  0.126  0.000  0.000  0.000  0.000  0.000  0.000  0.000  0.725
 
band     6 # energy  -10.83726154 # occ.  1.00000000
 
ion      s     py     pz     px    dxy    dyz    dz2    dxz  x2-y2    tot
    1  0.019  0.001  0.000  0.003  0.000  0.000  0.000  0.000  0.000  0.023
    2  0.019  0.001  0.000  0.003  0.000  0.000  0.000  0.000  0.000  0.023
    3  0.019  0.001  0.000  0.003  0.000  0.000  0.000  0.000  0.000  0.023
    4  0.019  0.001  0.000  0.003  0.000  0.000  0.000  0.000  0.000  0.023
    5  0.019  0.001  0.000  0.003  0.000  0.000  0.000  0.000  0.000  0.023
    6  0.019  0.001  0.000  0.003  0.000  0.000  0.000  0.000  0.000  0.023
    7  0.019  0.001  0.000  0.003  0.000  0.000  0.000  0.000  0.000  0.023
    8  0.019  0.001  0.000  0.003  0.000  0.000  0.000  0.000  0.000  0.023
    9  0.019  0.001  0.000  0.003  0.000  0.000  0.000  0.000  0.000  0.023
   10  0.019  0.001  0.000  0.003  0.000  0.000  0.000  0.000  0.000  0.023
   11  0.019  0.001  0.000  0.003  0.000  0.000  0.000  0.000  0.000  0.023
   12  0.019  0.001  0.000  0.003  0.000  0.000  0.000  0.000  0.000  0.023
   13  0.019  0.001  0.000  0.003  0.000  0.000  0.000  0.000  0.000  0.023
   14  0.019  0.001  0.000  0.003  0.000  0.000  0.000  0.000  0.000  0.023
   15  0.019  0.001  0.000  0.003  0.000  0.000  0.000  0.000  0.000  0.023
   16  0.019  0.001  0.000  0.003  0.000  0.000  0.000  0.000  0.000  0.023
   17  0.018  0.001  0.000  0.003  0.000  0.000  0.000  0.000  0.000  0.022
   18  0.018  0.001  0.000  0.003  0.000  0.000  0.000  0.000  0.000  0.022
   19  0.018  0.001  0.000  0.003  0.000  0.000  0.000  0.000  0.000  0.022
   20  0.018  0.001  0.000  0.003  0.000  0.000  0.000  0.000  0.000  0.022
   21  0.018  0.001  0.000  0.003  0.000  0.000  0.000  0.000  0.000  0.022
   22  0.018  0.001  0.000  0.003  0.000  0.000  0.000  0.000  0.000  0.022
   23  0.018  0.001  0.000  0.003  0.000  0.000  0.000  0.000  0.000  0.022
   24  0.018  0.001  0.000  0.003  0.000  0.000  0.000  0.000  0.000  0.022
   25  0.018  0.001  0.000  0.003  0.000  0.000  0.000  0.000  0.000  0.022
   26  0.018  0.001  0.000  0.003  0.000  0.000  0.000  0.000  0.000  0.022
   27  0.018  0.001  0.000  0.003  0.000  0.000  0.000  0.000  0.000  0.022
   28  0.018  0.001  0.000  0.003  0.000  0.000  0.000  0.000  0.000  0.022
   29  0.018  0.001  0.000  0.003  0.000  0.000  0.000  0.000  0.000  0.022
   30  0.018  0.001  0.000  0.003  0.000  0.000  0.000  0.000  0.000  0.022
   31  0.018  0.001  0.000  0.003  0.000  0.000  0.000  0.000  0.000  0.022
   32  0.018  0.001  0.000  0.003  0.000  0.000  0.000  0.000  0.000  0.022
tot    0.599  0.032  0.000  0.095  0.000  0.000  0.000  0.000  0.000  0.725
 
band     7 # energy  -10.83724421 # occ.  1.00000000
 
ion      s     py     pz     px    dxy    dyz    dz2    dxz  x2-y2    tot
    1  0.019  0.001  0.000  0.003  0.000  0.000  0.000  0.000  0.000  0.023
    2  0.019  0.001  0.000  0.003  0.000  0.000  0.000  0.000  0.000  0.023
    3  0.019  0.001  0.000  0.003  0.000  0.000  0.000  0.000  0.000  0.023
    4  0.019  0.001  0.000  0.003  0.000  0.000  0.000  0.000  0.000  0.023
    5  0.019  0.001  0.000  0.003  0.000  0.000  0.000  0.000  0.000  0.023
    6  0.019  0.001  0.000  0.003  0.000  0.000  0.000  0.000  0.000  0.023
    7  0.019  0.001  0.000  0.003  0.000  0.000  0.000  0.000  0.000  0.023
    8  0.019  0.001  0.000  0.003  0.000  0.000  0.000  0.000  0.000  0.023
    9  0.019  0.001  0.000  0.003  0.000  0.000  0.000  0.000  0.000  0.023
   10  0.019  0.001  0.000  0.003  0.000  0.000  0.000  0.000  0.000  0.023
   11  0.019  0.001  0.000  0.003  0.000  0.000  0.000  0.000  0.000  0.023
   12  0.019  0.001  0.000  0.003  0.000  0.000  0.000  0.000  0.000  0.023
   13  0.019  0.001  0.000  0.003  0.000  0.000  0.000  0.000  0.000  0.023
   14  0.019  0.001  0.000  0.003  0.000  0.000  0.000  0.000  0.000  0.023
   15  0.019  0.001  0.000  0.003  0.000  0.000  0.000  0.000  0.000  0.023
   16  0.019  0.001  0.000  0.003  0.000  0.000  0.000  0.000  0.000  0.023
   17  0.018  0.001  0.000  0.003  0.000  0.000  0.000  0.000  0.000  0.022
   18  0.018  0.001  0.000  0.003  0.000  0.000  0.000  0.000  0.000  0.022
   19  0.018  0.001  0.000  0.003  0.000  0.000  0.000  0.000  0.000  0.022
   20  0.018  0.001  0.000  0.003  0.000  0.000  0.000  0.000  0.000  0.022
   21  0.018  0.001  0.000  0.003  0.000  0.000  0.000  0.000  0.000  0.022
   22  0.018  0.001  0.000  0.003  0.000  0.000  0.000  0.000  0.000  0.022
   23  0.018  0.001  0.000  0.003  0.000  0.000  0.000  0.000  0.000  0.022
   24  0.018  0.001  0.000  0.003  0.000  0.000  0.000  0.000  0.000  0.022
   25  0.018  0.001  0.000  0.003  0.000  0.000  0.000  0.000  0.000  0.022
   26  0.018  0.001  0.000  0.003  0.000  0.000  0.000  0.000  0.000  0.022
   27  0.018  0.001  0.000  0.003  0.000  0.000  0.000  0.000  0.000  0.022
   28  0.018  0.001  0.000  0.003  0.000  0.000  0.000  0.000  0.000  0.022
   29  0.018  0.001  0.000  0.003  0.000  0.000  0.000  0.000  0.000  0.022
   30  0.018  0.001  0.000  0.003  0.000  0.000  0.000  0.000  0.000  0.022
   31  0.018  0.001  0.000  0.003  0.000  0.000  0.000  0.000  0.000  0.022
   32  0.018  0.001  0.000  0.003  0.000  0.000  0.000  0.000  0.000  0.022
tot    0.599  0.032  0.000  0.095  0.000  0.000  0.000  0.000  0.000  0.725
 
band     8 # energy  -10.82245541 # occ.  1.00000000
 
ion      s     py     pz     px    dxy    dyz    dz2    dxz  x2-y2    tot
    1  0.008  0.002  0.000  0.000  0.000  0.000  0.000  0.000  0.000  0.010
    2  0.008  0.002  0.000  0.000  0.000  0.000  0.000  0.000  0.000  0.010
    3  0.008  0.002  0.000  0.000  0.000  0.000  0.000  0.000  0.000  0.010
    4  0.008  0.002  0.000  0.000  0.000  0.000  0.000  0.000  0.000  0.010
    5  0.008  0.002  0.000  0.000  0.000  0.000  0.000  0.000  0.000  0.010
    6  0.008  0.002  0.000  0.000  0.000  0.000  0.000  0.000  0.000  0.010
    7  0.008  0.002  0.000  0.000  0.000  0.000  0.000  0.000  0.000  0.010
    8  0.008  0.002  0.000  0.000  0.000  0.000  0.000  0.000  0.000  0.010
    9  0.029  0.006  0.000  0.000  0.000  0.000  0.000  0.000  0.000  0.035
   10  0.029  0.006  0.000  0.000  0.000  0.000  0.000  0.000  0.000  0.035
   11  0.029  0.006  0.000  0.000  0.000  0.000  0.000  0.000  0.000  0.035
   12  0.029  0.006  0.000  0.000  0.000  0.000  0.000  0.000  0.000  0.035
   13  0.029  0.006  0.000  0.000  0.000  0.000  0.000  0.000  0.000  0.035
   14  0.029  0.006  0.000  0.000  0.000  0.000  0.000  0.000  0.000  0.035
   15  0.029  0.006  0.000  0.000  0.000  0.000  0.000  0.000  0.000  0.035
   16  0.029  0.006  0.000  0.000  0.000  0.000  0.000  0.000  0.000  0.035
   17  0.008  0.002  0.000  0.000  0.000  0.000  0.000  0.000  0.000  0.010
   18  0.008  0.002  0.000  0.000  0.000  0.000  0.000  0.000  0.000  0.010
   19  0.008  0.002  0.000  0.000  0.000  0.000  0.000  0.000  0.000  0.010
   20  0.008  0.002  0.000  0.000  0.000  0.000  0.000  0.000  0.000  0.010
   21  0.008  0.002  0.000  0.000  0.000  0.000  0.000  0.000  0.000  0.010
   22  0.008  0.002  0.000  0.000  0.000  0.000  0.000  0.000  0.000  0.010
   23  0.008  0.002  0.000  0.000  0.000  0.000  0.000  0.000  0.000  0.010
   24  0.008  0.002  0.000  0.000  0.000  0.000  0.000  0.000  0.000  0.010
   25  0.029  0.006  0.000  0.000  0.000  0.000  0.000  0.000  0.000  0.035
   26  0.029  0.006  0.000  0.000  0.000  0.000  0.000  0.000  0.000  0.035
   27  0.029  0.006  0.000  0.000  0.000  0.000  0.000  0.000  0.000  0.035
   28  0.029  0.006  0.000  0.000  0.000  0.000  0.000  0.000  0.000  0.035
   29  0.029  0.006  0.000  0.000  0.000  0.000  0.000  0.000  0.000  0.035
   30  0.029  0.006  0.000  0.000  0.000  0.000  0.000  0.000  0.000  0.035
   31  0.029  0.006  0.000  0.000  0.000  0.000  0.000  0.000  0.000  0.035
   32  0.029  0.006  0.000  0.000  0.000  0.000  0.000  0.000  0.000  0.035
tot    0.600  0.127  0.000  0.000  0.000  0.000  0.000  0.000  0.000  0.727
 
band     9 # energy  -10.82245541 # occ.  1.00000000
 
ion      s     py     pz     px    dxy    dyz    dz2    dxz  x2-y2    tot
    1  0.029  0.006  0.000  0.000  0.000  0.000  0.000  0.000  0.000  0.035
    2  0.029  0.006  0.000  0.000  0.000  0.000  0.000  0.000  0.000  0.035
    3  0.029  0.006  0.000  0.000  0.000  0.000  0.000  0.000  0.000  0.035
    4  0.029  0.006  0.000  0.000  0.000  0.000  0.000  0.000  0.000  0.035
    5  0.029  0.006  0.000  0.000  0.000  0.000  0.000  0.000  0.000  0.035
    6  0.029  0.006  0.000  0.000  0.000  0.000  0.000  0.000  0.000  0.035
    7  0.029  0.006  0.000  0.000  0.000  0.000  0.000  0.000  0.000  0.035
    8  0.029  0.006  0.000  0.000  0.000  0.000  0.000  0.000  0.000  0.035
    9  0.008  0.002  0.000  0.000  0.000  0.000  0.000  0.000  0.000  0.010
   10  0.008  0.002  0.000  0.000  0.000  0.000  0.000  0.000  0.000  0.010
   11  0.008  0.002  0.000  0.000  0.000  0.000  0.000  0.000  0.000  0.010
   12  0.008  0.002  0.000  0.000  0.000  0.000  0.000  0.000  0.000  0.010
   13  0.008  0.002  0.000  0.000  0.000  0.000  0.000  0.000  0.000  0.010
   14  0.008  0.002  0.000  0.000  0.000  0.000  0.000  0.000  0.000  0.010
   15  0.008  0.002  0.000  0.000  0.000  0.000  0.000  0.000  0.000  0.010
   16  0.008  0.002  0.000  0.000  0.000  0.000  0.000  0.000  0.000  0.010
   17  0.029  0.006  0.000  0.000  0.000  0.000  0.000  0.000  0.000  0.035
   18  0.029  0.006  0.000  0.000  0.000  0.000  0.000  0.000  0.000  0.035
   19  0.029  0.006  0.000  0.000  0.000  0.000  0.000  0.000  0.000  0.035
   20  0.029  0.006  0.000  0.000  0.000  0.000  0.000  0.000  0.000  0.035
   21  0.029  0.006  0.000  0.000  0.000  0.000  0.000  0.000  0.000  0.035
   22  0.029  0.006  0.000  0.000  0.000  0.000  0.000  0.000  0.000  0.035
   23  0.029  0.006  0.000  0.000  0.000  0.000  0.000  0.000  0.000  0.035
   24  0.029  0.006  0.000  0.000  0.000  0.000  0.000  0.000  0.000  0.035
   25  0.008  0.002  0.000  0.000  0.000  0.000  0.000  0.000  0.000  0.010
   26  0.008  0.002  0.000  0.000  0.000  0.000  0.000  0.000  0.000  0.010
   27  0.008  0.002  0.000  0.000  0.000  0.000  0.000  0.000  0.000  0.010
   28  0.008  0.002  0.000  0.000  0.000  0.000  0.000  0.000  0.000  0.010
   29  0.008  0.002  0.000  0.000  0.000  0.000  0.000  0.000  0.000  0.010
   30  0.008  0.002  0.000  0.000  0.000  0.000  0.000  0.000  0.000  0.010
   31  0.008  0.002  0.000  0.000  0.000  0.000  0.000  0.000  0.000  0.010
   32  0.008  0.002  0.000  0.000  0.000  0.000  0.000  0.000  0.000  0.010
tot    0.600  0.127  0.000  0.000  0.000  0.000  0.000  0.000  0.000  0.727
 
band    10 # energy  -10.82244929 # occ.  1.00000000
 
ion      s     py     pz     px    dxy    dyz    dz2    dxz  x2-y2    tot
    1  0.028  0.001  0.000  0.004  0.000  0.000  0.000  0.000  0.000  0.034
    2  0.028  0.001  0.000  0.004  0.000  0.000  0.000  0.000  0.000  0.034
    3  0.028  0.001  0.000  0.004  0.000  0.000  0.000  0.000  0.000  0.034
    4  0.028  0.001  0.000  0.004  0.000  0.000  0.000  0.000  0.000  0.034
    5  0.028  0.001  0.000  0.004  0.000  0.000  0.000  0.000  0.000  0.034
    6  0.028  0.001  0.000  0.004  0.000  0.000  0.000  0.000  0.000  0.034
    7  0.028  0.001  0.000  0.004  0.000  0.000  0.000  0.000  0.000  0.034
    8  0.028  0.001  0.000  0.004  0.000  0.000  0.000  0.000  0.000  0.034
    9  0.009  0.000  0.000  0.001  0.000  0.000  0.000  0.000  0.000  0.011
   10  0.009  0.000  0.000  0.001  0.000  0.000  0.000  0.000  0.000  0.011
   11  0.009  0.000  0.000  0.001  0.000  0.000  0.000  0.000  0.000  0.011
   12  0.009  0.000  0.000  0.001  0.000  0.000  0.000  0.000  0.000  0.011
   13  0.009  0.000  0.000  0.001  0.000  0.000  0.000  0.000  0.000  0.011
   14  0.009  0.000  0.000  0.001  0.000  0.000  0.000  0.000  0.000  0.011
   15  0.009  0.000  0.000  0.001  0.000  0.000  0.000  0.000  0.000  0.011
   16  0.009  0.000  0.000  0.001  0.000  0.000  0.000  0.000  0.000  0.011
   17  0.028  0.001  0.000  0.004  0.000  0.000  0.000  0.000  0.000  0.034
   18  0.028  0.001  0.000  0.004  0.000  0.000  0.000  0.000  0.000  0.034
   19  0.028  0.001  0.000  0.004  0.000  0.000  0.000  0.000  0.000  0.034
   20  0.028  0.001  0.000  0.004  0.000  0.000  0.000  0.000  0.000  0.034
   21  0.028  0.001  0.000  0.004  0.000  0.000  0.000  0.000  0.000  0.034
   22  0.028  0.001  0.000  0.004  0.000  0.000  0.000  0.000  0.000  0.034
   23  0.028  0.001  0.000  0.004  0.000  0.000  0.000  0.000  0.000  0.034
   24  0.028  0.001  0.000  0.004  0.000  0.000  0.000  0.000  0.000  0.034
   25  0.009  0.000  0.000  0.001  0.000  0.000  0.000  0.000  0.000  0.011
   26  0.009  0.000  0.000  0.001  0.000  0.000  0.000  0.000  0.000  0.011
   27  0.009  0.000  0.000  0.001  0.000  0.000  0.000  0.000  0.000  0.011
   28  0.009  0.000  0.000  0.001  0.000  0.000  0.000  0.000  0.000  0.011
   29  0.009  0.000  0.000  0.001  0.000  0.000  0.000  0.000  0.000  0.011
   30  0.009  0.000  0.000  0.001  0.000  0.000  0.000  0.000  0.000  0.011
   31  0.009  0.000  0.000  0.001  0.000  0.000  0.000  0.000  0.000  0.011
   32  0.009  0.000  0.000  0.001  0.000  0.000  0.000  0.000  0.000  0.011
tot    0.600  0.032  0.000  0.095  0.000  0.000  0.000  0.000  0.000  0.727
 
band    11 # energy  -10.82244929 # occ.  1.00000000
 
ion      s     py     pz     px    dxy    dyz    dz2    dxz  x2-y2    tot
    1  0.009  0.000  0.000  0.001  0.000  0.000  0.000  0.000  0.000  0.011
    2  0.009  0.000  0.000  0.001  0.000  0.000  0.000  0.000  0.000  0.011
    3  0.009  0.000  0.000  0.001  0.000  0.000  0.000  0.000  0.000  0.011
    4  0.009  0.000  0.000  0.001  0.000  0.000  0.000  0.000  0.000  0.011
    5  0.009  0.000  0.000  0.001  0.000  0.000  0.000  0.000  0.000  0.011
    6  0.009  0.000  0.000  0.001  0.000  0.000  0.000  0.000  0.000  0.011
    7  0.009  0.000  0.000  0.001  0.000  0.000  0.000  0.000  0.000  0.011
    8  0.009  0.000  0.000  0.001  0.000  0.000  0.000  0.000  0.000  0.011
    9  0.028  0.001  0.000  0.004  0.000  0.000  0.000  0.000  0.000  0.034
   10  0.028  0.001  0.000  0.004  0.000  0.000  0.000  0.000  0.000  0.034
   11  0.028  0.001  0.000  0.004  0.000  0.000  0.000  0.000  0.000  0.034
   12  0.028  0.001  0.000  0.004  0.000  0.000  0.000  0.000  0.000  0.034
   13  0.028  0.001  0.000  0.004  0.000  0.000  0.000  0.000  0.000  0.034
   14  0.028  0.001  0.000  0.004  0.000  0.000  0.000  0.000  0.000  0.034
   15  0.028  0.001  0.000  0.004  0.000  0.000  0.000  0.000  0.000  0.034
   16  0.028  0.001  0.000  0.004  0.000  0.000  0.000  0.000  0.000  0.034
   17  0.009  0.000  0.000  0.001  0.000  0.000  0.000  0.000  0.000  0.011
   18  0.009  0.000  0.000  0.001  0.000  0.000  0.000  0.000  0.000  0.011
   19  0.009  0.000  0.000  0.001  0.000  0.000  0.000  0.000  0.000  0.011
   20  0.009  0.000  0.000  0.001  0.000  0.000  0.000  0.000  0.000  0.011
   21  0.009  0.000  0.000  0.001  0.000  0.000  0.000  0.000  0.000  0.011
   22  0.009  0.000  0.000  0.001  0.000  0.000  0.000  0.000  0.000  0.011
   23  0.009  0.000  0.000  0.001  0.000  0.000  0.000  0.000  0.000  0.011
   24  0.009  0.000  0.000  0.001  0.000  0.000  0.000  0.000  0.000  0.011
   25  0.028  0.001  0.000  0.004  0.000  0.000  0.000  0.000  0.000  0.034
   26  0.028  0.001  0.000  0.004  0.000  0.000  0.000  0.000  0.000  0.034
   27  0.028  0.001  0.000  0.004  0.000  0.000  0.000  0.000  0.000  0.034
   28  0.028  0.001  0.000  0.004  0.000  0.000  0.000  0.000  0.000  0.034
   29  0.028  0.001  0.000  0.004  0.000  0.000  0.000  0.000  0.000  0.034
   30  0.028  0.001  0.000  0.004  0.000  0.000  0.000  0.000  0.000  0.034
   31  0.028  0.001  0.000  0.004  0.000  0.000  0.000  0.000  0.000  0.034
   32  0.028  0.001  0.000  0.004  0.000  0.000  0.000  0.000  0.000  0.034
tot    0.600  0.032  0.000  0.095  0.000  0.000  0.000  0.000  0.000  0.727
 
band    12 # energy  -10.82243215 # occ.  1.00000000
 
ion      s     py     pz     px    dxy    dyz    dz2    dxz  x2-y2    tot
    1  0.010  0.001  0.000  0.002  0.000  0.000  0.000  0.000  0.000  0.012
    2  0.010  0.001  0.000  0.002  0.000  0.000  0.000  0.000  0.000  0.012
    3  0.010  0.001  0.000  0.002  0.000  0.000  0.000  0.000  0.000  0.012
    4  0.010  0.001  0.000  0.002  0.000  0.000  0.000  0.000  0.000  0.012
    5  0.010  0.001  0.000  0.002  0.000  0.000  0.000  0.000  0.000  0.012
    6  0.010  0.001  0.000  0.002  0.000  0.000  0.000  0.000  0.000  0.012
    7  0.010  0.001  0.000  0.002  0.000  0.000  0.000  0.000  0.000  0.012
    8  0.010  0.001  0.000  0.002  0.000  0.000  0.000  0.000  0.000  0.012