   4   4   1   0
  0.5717550E+01  0.2513094E-09  0.2513094E-09  0.4181402E-09  0.1500000E-16
   1.0000000000000000E-004
  CAR 
 unknown system                          
     33.63548347    -13.79408973  301     11.66472180      1.00000000
    -13.794  0.0000E+00  0.0000E+00  0.0000E+00  0.0000E+00
    -13.636  0.0000E+00  0.0000E+00  0.0000E+00  0.0000E+00
    -13.478  0.0000E+00  0.0000E+00  0.0000E+00  0.0000E+00
    -13.320  0.0000E+00  0.0000E+00  0.0000E+00  0.0000E+00
    -13.162  0.0000E+00  0.0000E+00  0.0000E+00  0.0000E+00
    -13.004  0.0000E+00  0.0000E+00  0.0000E+00  0.0000E+00
    -12.845  0.0000E+00  0.0000E+00  0.0000E+00  0.0000E+00
    -12.687  0.0000E+00  0.0000E+00  0.0000E+00  0.0000E+00
    -12.529  0.0000E+00  0.0000E+00  0.0000E+00  0.0000E+00
    -12.371  0.0000E+00  0.0000E+00  0.0000E+00  0.0000E+00
    -12.213  0.0000E+00  0.0000E+00  0.0000E+00  0.0000E+00
    -12.055  0.0000E+00  0.0000E+00  0.0000E+00  0.0000E+00
    -11.897  0.0000E+00  0.0000E+00  0.0000E+00  0.0000E+00
    -11.739  0.0000E+00  0.0000E+00  0.0000E+00  0.0000E+00
    -11.581  0.4637E-04  0.4635E-04  0.8886E-06  0.8881E-06
    -11.423  0.4141E-03  0.4140E-03  0.3848E-04  0.3847E-04
    -11.265  0.5552E-03  0.5552E-03  0.1167E-03  0.1167E-03
    -11.106  0.7024E-03  0.7024E-03  0.2174E-03  0.2174E-03
    -10.948  0.7959E-03  0.7959E-03  0.3354E-03  0.3354E-03
    -10.790  0.9299E-03  0.9298E-03  0.4719E-03  0.4718E-03
    -10.632  0.1016E-02  0.1016E-02  0.6262E-03  0.6262E-03
    -10.474  0.1075E-02  0.1075E-02  0.7916E-03  0.7916E-03
    -10.316  0.1145E-02  0.1145E-02  0.9669E-03  0.9669E-03
    -10.158  0.1231E-02  0.1231E-02  0.1155E-02  0.1155E-02
    -10.000  0.1319E-02  0.1319E-02  0.1356E-02  0.1356E-02
     -9.842  0.1386E-02  0.1386E-02  0.1570E-02  0.1570E-02
     -9.684  0.1439E-02  0.1439E-02  0.1794E-02  0.1794E-02
     -9.525  0.1498E-02  0.1498E-02  0.2026E-02  0.2026E-02
     -9.367  0.1556E-02  0.1556E-02  0.2267E-02  0.2267E-02
     -9.209  0.1620E-02  0.1620E-02  0.2518E-02  0.2518E-02
     -9.051  0.1683E-02  0.1683E-02  0.2779E-02  0.2779E-02
     -8.893  0.1735E-02  0.1735E-02  0.3050E-02  0.3050E-02
     -8.735  0.1790E-02  0.1790E-02  0.3328E-02  0.3328E-02
     -8.577  0.1851E-02  0.1851E-02  0.3616E-02  0.3616E-02
     -8.419  0.1909E-02  0.1909E-02  0.3913E-02  0.3913E-02
     -8.261  0.1961E-02  0.1961E-02  0.4219E-02  0.4219E-02
     -8.103  0.2017E-02  0.2017E-02  0.4534E-02  0.4534E-02
     -7.944  0.2072E-02  0.2072E-02  0.4857E-02  0.4857E-02
     -7.786  0.2122E-02  0.2122E-02  0.5189E-02  0.5189E-02
     -7.628  0.2175E-02  0.2175E-02  0.5528E-02  0.5528E-02
     -7.470  0.2230E-02  0.2230E-02  0.5876E-02  0.5876E-02
     -7.312  0.2288E-02  0.2288E-02  0.6233E-02  0.6233E-02
     -7.154  0.2351E-02  0.2351E-02  0.6600E-02  0.6600E-02
     -6.996  0.2417E-02  0.2417E-02  0.6977E-02  0.6977E-02
     -6.838  0.2486E-02  0.2486E-02  0.7365E-02  0.7365E-02
     -6.680  0.2574E-02  0.2574E-02  0.7764E-02  0.7764E-02
     -6.522  0.2672E-02  0.2672E-02  0.8179E-02  0.8179E-02
     -6.363  0.2794E-02  0.2794E-02  0.8611E-02  0.8611E-02
     -6.205  0.2932E-02  0.2932E-02  0.9063E-02  0.9063E-02
     -6.047  0.3344E-02  0.3344E-02  0.9562E-02  0.9562E-02
     -5.889  0.3254E-02  0.3254E-02  0.1009E-01  0.1009E-01
     -5.731  0.3173E-02  0.3173E-02  0.1060E-01  0.1060E-01
     -5.573  0.3148E-02  0.3148E-02  0.1110E-01  0.1110E-01
     -5.415  0.3298E-02  0.3298E-02  0.1161E-01  0.1161E-01
     -5.257  0.3004E-02  0.3004E-02  0.1211E-01  0.1211E-01
     -5.099  0.2908E-02  0.2908E-02  0.1258E-01  0.1258E-01
     -4.941  0.2822E-02  0.2822E-02  0.1303E-01  0.1303E-01
     -4.782  0.2728E-02  0.2728E-02  0.1347E-01  0.1347E-01
     -4.624  0.2616E-02  0.2616E-02  0.1389E-01  0.1389E-01
     -4.466  0.2524E-02  0.2524E-02  0.1430E-01  0.1430E-01
     -4.308  0.2465E-02  0.2465E-02  0.1470E-01  0.1470E-01
     -4.150  0.2339E-02  0.2339E-02  0.1507E-01  0.1507E-01
     -3.992  0.2430E-02  0.2430E-02  0.1545E-01  0.1545E-01
     -3.834  0.2832E-02  0.2832E-02  0.1585E-01  0.1585E-01
     -3.676  0.3376E-02  0.3376E-02  0.1635E-01  0.1635E-01
     -3.518  0.3660E-02  0.3660E-02  0.1691E-01  0.1691E-01
     -3.360  0.3337E-02  0.3337E-02  0.1746E-01  0.1746E-01
     -3.201  0.3499E-02  0.3499E-02  0.1801E-01  0.1801E-01
     -3.043  0.3336E-02  0.3336E-02  0.1855E-01  0.1855E-01
     -2.885  0.2825E-02  0.2826E-02  0.1908E-01  0.1908E-01
     -2.727  0.2233E-02  0.2233E-02  0.1947E-01  0.1947E-01
     -2.569  0.2017E-02  0.2017E-02  0.1980E-01  0.1980E-01
     -2.411  0.1884E-02  0.1884E-02  0.2011E-01  0.2011E-01
     -2.253  0.1995E-02  0.1995E-02  0.2042E-01  0.2042E-01
     -2.095  0.2187E-02  0.2187E-02  0.2075E-01  0.2075E-01
     -1.937  0.2478E-02  0.2478E-02  0.2111E-01  0.2111E-01
     -1.779  0.3257E-02  0.3257E-02  0.2157E-01  0.2157E-01
     -1.620  0.3899E-02  0.3899E-02  0.2214E-01  0.2214E-01
     -1.462  0.4098E-02  0.4098E-02  0.2278E-01  0.2278E-01
     -1.304  0.4381E-02  0.4381E-02  0.2344E-01  0.2344E-01
     -1.146  0.4716E-02  0.4716E-02  0.2417E-01  0.2417E-01
     -0.988  0.4514E-02  0.4514E-02  0.2491E-01  0.2491E-01
     -0.830  0.4069E-02  0.4069E-02  0.2558E-01  0.2558E-01
     -0.672  0.3811E-02  0.3811E-02  0.2620E-01  0.2620E-01
     -0.514  0.3636E-02  0.3636E-02  0.2679E-01  0.2679E-01
     -0.356  0.3614E-02  0.3614E-02  0.2737E-01  0.2737E-01
     -0.198  0.3236E-02  0.3236E-02  0.2790E-01  0.2790E-01
     -0.040  0.2934E-02  0.2934E-02  0.2839E-01  0.2839E-01
      0.119  0.2865E-02  0.2865E-02  0.2885E-01  0.2885E-01
      0.277  0.2878E-02  0.2878E-02  0.2930E-01  0.2930E-01
      0.435  0.3172E-02  0.3172E-02  0.2978E-01  0.2978E-01
      0.593  0.3827E-02  0.3827E-02  0.3033E-01  0.3033E-01
      0.751  0.4487E-02  0.4487E-02  0.3098E-01  0.3098E-01
      0.909  0.4902E-02  0.4902E-02  0.3174E-01  0.3174E-01
      1.067  0.5198E-02  0.5198E-02  0.3253E-01  0.3253E-01
      1.225  0.5085E-02  0.5085E-02  0.3335E-01  0.3335E-01
      1.383  0.4690E-02  0.4690E-02  0.3412E-01  0.3412E-01
      1.541  0.4363E-02  0.4363E-02  0.3484E-01  0.3484E-01
      1.700  0.4249E-02  0.4249E-02  0.3552E-01  0.3552E-01
      1.858  0.4005E-02  0.4005E-02  0.3618E-01  0.3618E-01
      2.016  0.3964E-02  0.3964E-02  0.3680E-01  0.3680E-01
      2.174  0.3925E-02  0.3925E-02  0.3743E-01  0.3743E-01
      2.332  0.3982E-02  0.3982E-02  0.3805E-01  0.3805E-01
      2.490  0.4220E-02  0.4220E-02  0.3870E-01  0.3870E-01
      2.648  0.4534E-02  0.4534E-02  0.3939E-01  0.3939E-01
      2.806  0.4846E-02  0.4846E-02  0.4014E-01  0.4014E-01
      2.964  0.5096E-02  0.5096E-02  0.4092E-01  0.4092E-01
      3.122  0.5332E-02  0.5332E-02  0.4175E-01  0.4175E-01
      3.281  0.5515E-02  0.5515E-02  0.4261E-01  0.4261E-01
      3.439  0.5541E-02  0.5541E-02  0.4348E-01  0.4348E-01
      3.597  0.5144E-02  0.5144E-02  0.4434E-01  0.4434E-01
      3.755  0.5349E-02  0.5349E-02  0.4517E-01  0.4517E-01
      3.913  0.5139E-02  0.5139E-02  0.4602E-01  0.4602E-01
      4.071  0.5278E-02  0.5278E-02  0.4682E-01  0.4682E-01
      4.229  0.5739E-02  0.5739E-02  0.4770E-01  0.4770E-01
      4.387  0.5850E-02  0.5850E-02  0.4862E-01  0.4862E-01
      4.545  0.5991E-02  0.5991E-02  0.4956E-01  0.4956E-01
      4.703  0.6224E-02  0.6224E-02  0.5051E-01  0.5051E-01
      4.862  0.6107E-02  0.6107E-02  0.5147E-01  0.5147E-01
      5.020  0.6699E-02  0.6699E-02  0.5247E-01  0.5247E-01
      5.178  0.7210E-02  0.7210E-02  0.5358E-01  0.5358E-01
      5.336  0.7436E-02  0.7436E-02  0.5475E-01  0.5475E-01
      5.494  0.7317E-02  0.7317E-02  0.5591E-01  0.5591E-01
      5.652  0.6728E-02  0.6728E-02  0.5702E-01  0.5702E-01
      5.810  0.6340E-02  0.6340E-02  0.5805E-01  0.5805E-01
      5.968  0.6453E-02  0.6453E-02  0.5905E-01  0.5905E-01
      6.126  0.6945E-02  0.6945E-02  0.6010E-01  0.6010E-01
      6.284  0.8930E-02  0.8930E-02  0.6137E-01  0.6137E-01
      6.443  0.9206E-02  0.9206E-02  0.6281E-01  0.6281E-01
      6.601  0.1078E-01  0.1078E-01  0.6437E-01  0.6437E-01
      6.759  0.8550E-02  0.8550E-02  0.6598E-01  0.6598E-01
      6.917  0.7450E-02  0.7450E-02  0.6723E-01  0.6723E-01
      7.075  0.7088E-02  0.7088E-02  0.6838E-01  0.6838E-01
      7.233  0.6822E-02  0.6822E-02  0.6948E-01  0.6948E-01
      7.391  0.6341E-02  0.6341E-02  0.7053E-01  0.7053E-01
      7.549  0.6050E-02  0.6050E-02  0.7150E-01  0.7150E-01
      7.707  0.5565E-02  0.5565E-02  0.7243E-01  0.7243E-01
      7.865  0.5097E-02  0.5097E-02  0.7327E-01  0.7327E-01
      8.024  0.4558E-02  0.4558E-02  0.7404E-01  0.7404E-01
      8.182  0.3896E-02  0.3896E-02  0.7471E-01  0.7471E-01
      8.340  0.3499E-02  0.3499E-02  0.7529E-01  0.7529E-01
      8.498  0.3231E-02  0.3231E-02  0.7582E-01  0.7582E-01
      8.656  0.3051E-02  0.3051E-02  0.7631E-01  0.7631E-01
      8.814  0.2785E-02  0.2785E-02  0.7678E-01  0.7678E-01
      8.972  0.2532E-02  0.2532E-02  0.7720E-01  0.7720E-01
      9.130  0.2322E-02  0.2322E-02  0.7758E-01  0.7758E-01
      9.288  0.2178E-02  0.2178E-02  0.7794E-01  0.7794E-01
      9.446  0.1989E-02  0.1989E-02  0.7827E-01  0.7827E-01
      9.604  0.1743E-02  0.1743E-02  0.7856E-01  0.7856E-01
      9.763  0.1521E-02  0.1521E-02  0.7882E-01  0.7882E-01
      9.921  0.1326E-02  0.1326E-02  0.7904E-01  0.7904E-01
     10.079  0.1136E-02  0.1136E-02  0.7924E-01  0.7924E-01
     10.237  0.9714E-03  0.9714E-03  0.7940E-01  0.7940E-01
     10.395  0.8439E-03  0.8439E-03  0.7955E-01  0.7955E-01
     10.553  0.7316E-03  0.7316E-03  0.7967E-01  0.7967E-01
     10.711  0.6025E-03  0.6025E-03  0.7978E-01  0.7978E-01
     10.869  0.4575E-03  0.4575E-03  0.7986E-01  0.7986E-01
     11.027  0.3560E-03  0.3560E-03  0.7993E-01  0.7993E-01
     11.185  0.2247E-03  0.2247E-03  0.7997E-01  0.7997E-01
     11.344  0.7410E-04  0.7410E-04  0.8000E-01  0.8000E-01
     11.502  0.6072E-06  0.6069E-06  0.8000E-01  0.8000E-01
     11.660  0.0000E+00  0.0000E+00  0.8000E-01  0.8000E-01
     11.818  0.0000E+00  0.0000E+00  0.8000E-01  0.8000E-01
     11.976  0.0000E+00  0.0000E+00  0.8000E-01  0.8000E-01
     12.134  0.0000E+00  0.0000E+00  0.8000E-01  0.8000E-01
     12.292  0.0000E+00  0.0000E+00  0.8000E-01  0.8000E-01
     12.450  0.0000E+00  0.0000E+00  0.8000E-01  0.8000E-01
     12.608  0.0000E+00  0.0000E+00  0.8000E-01  0.8000E-01
     12.766  0.0000E+00  0.0000E+00  0.8000E-01  0.8000E-01
     12.925  0.0000E+00  0.0000E+00  0.8000E-01  0.8000E-01
     13.083  0.0000E+00  0.0000E+00  0.8000E-01  0.8000E-01
     13.241  0.0000E+00  0.0000E+00  0.8000E-01  0.8000E-01
     13.399  0.0000E+00  0.0000E+00  0.8000E-01  0.8000E-01
     13.557  0.0000E+00  0.0000E+00  0.8000E-01  0.8000E-01
     13.715  0.0000E+00  0.0000E+00  0.8000E-01  0.8000E-01
     13.873  0.0000E+00  0.0000E+00  0.8000E-01  0.8000E-01
     14.031  0.0000E+00  0.0000E+00  0.8000E-01  0.8000E-01
     14.189  0.0000E+00  0.0000E+00  0.8000E-01  0.8000E-01
     14.347  0.0000E+00  0.0000E+00  0.8000E-01  0.8000E-01
     14.506  0.0000E+00  0.0000E+00  0.8000E-01  0.8000E-01
     14.664  0.5751E-04  0.5751E-04  0.8000E-01  0.8000E-01
     14.822  0.1141E-03  0.1141E-03  0.8002E-01  0.8002E-01
     14.980  0.1739E-03  0.1739E-03  0.8004E-01  0.8004E-01
     15.138  0.2395E-03  0.2395E-03  0.8007E-01  0.8007E-01
     15.296  0.3112E-03  0.3112E-03  0.8012E-01  0.8012E-01
     15.454  0.3846E-03  0.3846E-03  0.8017E-01  0.8017E-01
     15.612  0.4113E-03  0.4113E-03  0.8023E-01  0.8023E-01
     15.770  0.4479E-03  0.4479E-03  0.8030E-01  0.8030E-01
     15.928  0.4879E-03  0.4879E-03  0.8038E-01  0.8038E-01
     16.087  0.5282E-03  0.5282E-03  0.8046E-01  0.8046E-01
     16.245  0.6451E-03  0.6451E-03  0.8054E-01  0.8054E-01
     16.403  0.1203E-02  0.1203E-02  0.8069E-01  0.8069E-01
     16.561  0.2002E-02  0.2002E-02  0.8094E-01  0.8094E-01
     16.719  0.3430E-02  0.3430E-02  0.8135E-01  0.8135E-01
     16.877  0.5593E-02  0.5593E-02  0.8207E-01  0.8207E-01
     17.035  0.6865E-02  0.6865E-02  0.8307E-01  0.8307E-01
     17.193  0.5854E-02  0.5854E-02  0.8404E-01  0.8404E-01
     17.351  0.5071E-02  0.5071E-02  0.8489E-01  0.8489E-01
     17.509  0.4972E-02  0.4972E-02  0.8568E-01  0.8568E-01
     17.668  0.5111E-02  0.5111E-02  0.8647E-01  0.8647E-01
     17.826  0.5273E-02  0.5273E-02  0.8729E-01  0.8729E-01
     17.984  0.5452E-02  0.5452E-02  0.8814E-01  0.8814E-01
     18.142  0.5664E-02  0.5664E-02  0.8904E-01  0.8904E-01
     18.300  0.6457E-02  0.6457E-02  0.8999E-01  0.8999E-01
     18.458  0.7066E-02  0.7066E-02  0.9106E-01  0.9106E-01
     18.616  0.8022E-02  0.8022E-02  0.9224E-01  0.9224E-01
     18.774  0.9972E-02  0.9972E-02  0.9365E-01  0.9365E-01
     18.932  0.1060E-01  0.1060E-01  0.9530E-01  0.9530E-01
     19.090  0.1064E-01  0.1064E-01  0.9702E-01  0.9702E-01
     19.249  0.8940E-02  0.8940E-02  0.9853E-01  0.9853E-01
     19.407  0.7399E-02  0.7399E-02  0.9989E-01  0.9989E-01
     19.565  0.5549E-02  0.5550E-02  0.1009E+00  0.1009E+00
     19.723  0.6154E-02  0.6154E-02  0.1018E+00  0.1018E+00
     19.881  0.6978E-02  0.6978E-02  0.1028E+00  0.1028E+00
     20.039  0.6241E-02  0.6241E-02  0.1039E+00  0.1039E+00
     20.197  0.5601E-02  0.5601E-02  0.1048E+00  0.1048E+00
     20.355  0.5535E-02  0.5535E-02  0.1057E+00  0.1057E+00
     20.513  0.5813E-02  0.5813E-02  0.1066E+00  0.1066E+00
     20.671  0.6317E-02  0.6317E-02  0.1075E+00  0.1075E+00
     20.829  0.7490E-02  0.7490E-02  0.1086E+00  0.1086E+00
     20.988  0.8882E-02  0.8882E-02  0.1100E+00  0.1100E+00
     21.146  0.9074E-02  0.9074E-02  0.1114E+00  0.1114E+00
     21.304  0.8707E-02  0.8707E-02  0.1128E+00  0.1128E+00
     21.462  0.8448E-02  0.8448E-02  0.1141E+00  0.1141E+00
     21.620  0.7071E-02  0.7071E-02  0.1154E+00  0.1154E+00
     21.778  0.6144E-02  0.6144E-02  0.1164E+00  0.1164E+00
     21.936  0.5596E-02  0.5596E-02  0.1173E+00  0.1173E+00
     22.094  0.5279E-02  0.5279E-02  0.1182E+00  0.1182E+00
     22.252  0.5410E-02  0.5410E-02  0.1190E+00  0.1190E+00
     22.410  0.5091E-02  0.5091E-02  0.1199E+00  0.1199E+00
     22.569  0.4674E-02  0.4674E-02  0.1206E+00  0.1206E+00
     22.727  0.5269E-02  0.5269E-02  0.1214E+00  0.1214E+00
     22.885  0.6380E-02  0.6380E-02  0.1223E+00  0.1223E+00
     23.043  0.8384E-02  0.8385E-02  0.1235E+00  0.1235E+00
     23.201  0.7369E-02  0.7369E-02  0.1247E+00  0.1247E+00
     23.359  0.6513E-02  0.6513E-02  0.1258E+00  0.1258E+00
     23.517  0.6611E-02  0.6611E-02  0.1269E+00  0.1269E+00
     23.675  0.6784E-02  0.6784E-02  0.1279E+00  0.1279E+00
     23.833  0.6473E-02  0.6473E-02  0.1289E+00  0.1289E+00
     23.991  0.5559E-02  0.5560E-02  0.1299E+00  0.1299E+00
     24.150  0.5121E-02  0.5121E-02  0.1307E+00  0.1307E+00
     24.308  0.4863E-02  0.4863E-02  0.1315E+00  0.1315E+00
     24.466  0.4261E-02  0.4261E-02  0.1323E+00  0.1323E+00
     24.624  0.3467E-02  0.3467E-02  0.1329E+00  0.1329E+00
     24.782  0.3374E-02  0.3374E-02  0.1334E+00  0.1334E+00
     24.940  0.3355E-02  0.3355E-02  0.1339E+00  0.1339E+00
     25.098  0.3634E-02  0.3634E-02  0.1345E+00  0.1345E+00
     25.256  0.4265E-02  0.4265E-02  0.1351E+00  0.1351E+00
     25.414  0.4749E-02  0.4749E-02  0.1358E+00  0.1358E+00
     25.572  0.4432E-02  0.4432E-02  0.1365E+00  0.1365E+00
     25.731  0.4150E-02  0.4150E-02  0.1372E+00  0.1372E+00
     25.889  0.3816E-02  0.3816E-02  0.1378E+00  0.1378E+00
     26.047  0.4151E-02  0.4151E-02  0.1385E+00  0.1385E+00
     26.205  0.4266E-02  0.4266E-02  0.1391E+00  0.1391E+00
     26.363  0.5084E-02  0.5084E-02  0.1399E+00  0.1399E+00
     26.521  0.5519E-02  0.5519E-02  0.1407E+00  0.1407E+00
     26.679  0.5418E-02  0.5418E-02  0.1416E+00  0.1416E+00
     26.837  0.5068E-02  0.5068E-02  0.1424E+00  0.1424E+00
     26.995  0.5084E-02  0.5084E-02  0.1432E+00  0.1432E+00
     27.153  0.5141E-02  0.5141E-02  0.1440E+00  0.1440E+00
     27.312  0.5304E-02  0.5304E-02  0.1448E+00  0.1448E+00
     27.470  0.5791E-02  0.5791E-02  0.1457E+00  0.1457E+00
     27.628  0.6301E-02  0.6301E-02  0.1467E+00  0.1467E+00
     27.786  0.7548E-02  0.7548E-02  0.1477E+00  0.1477E+00
     27.944  0.7952E-02  0.7952E-02  0.1491E+00  0.1491E+00
     28.102  0.9728E-02  0.9727E-02  0.1504E+00  0.1504E+00
     28.260  0.8017E-02  0.8017E-02  0.1519E+00  0.1519E+00
     28.418  0.7191E-02  0.7191E-02  0.1530E+00  0.1530E+00
     28.576  0.6654E-02  0.6655E-02  0.1541E+00  0.1541E+00
     28.734  0.5597E-02  0.5597E-02  0.1551E+00  0.1551E+00
     28.893  0.4454E-02  0.4454E-02  0.1559E+00  0.1559E+00
     29.051  0.3565E-02  0.3565E-02  0.1565E+00  0.1565E+00
     29.209  0.2963E-02  0.2963E-02  0.1571E+00  0.1571E+00
     29.367  0.2368E-02  0.2368E-02  0.1575E+00  0.1575E+00
     29.525  0.2081E-02  0.2081E-02  0.1578E+00  0.1578E+00
     29.683  0.1863E-02  0.1870E-02  0.1581E+00  0.1581E+00
     29.841  0.1701E-02  0.1711E-02  0.1584E+00  0.1584E+00
     29.999  0.1517E-02  0.1524E-02  0.1587E+00  0.1587E+00
     30.157  0.1379E-02  0.1377E-02  0.1589E+00  0.1589E+00
     30.315  0.1300E-02  0.1286E-02  0.1591E+00  0.1591E+00
     30.474  0.1204E-02  0.1195E-02  0.1593E+00  0.1593E+00
     30.632  0.1204E-02  0.1203E-02  0.1595E+00  0.1595E+00
     30.790  0.1014E-02  0.1014E-02  0.1597E+00  0.1597E+00
     30.948  0.7547E-03  0.7547E-03  0.1598E+00  0.1598E+00
     31.106  0.5131E-03  0.5131E-03  0.1599E+00  0.1599E+00
     31.264  0.2291E-03  0.2291E-03  0.1600E+00  0.1600E+00
     31.422  0.1629E-04  0.1628E-04  0.1600E+00  0.1600E+00
     31.580  0.0000E+00  0.0000E+00  0.1600E+00  0.1600E+00
     31.738  0.0000E+00  0.0000E+00  0.1600E+00  0.1600E+00
     31.896  0.0000E+00  0.0000E+00  0.1600E+00  0.1600E+00
     32.054  0.0000E+00  0.0000E+00  0.1600E+00  0.1600E+00
     32.213  0.0000E+00  0.0000E+00  0.1600E+00  0.1600E+00
     32.371  0.0000E+00  0.0000E+00  0.1600E+00  0.1600E+00
     32.529  0.0000E+00  0.0000E+00  0.1600E+00  0.1600E+00
     32.687  0.0000E+00  0.0000E+00  0.1600E+00  0.1600E+00
     32.845  0.0000E+00  0.0000E+00  0.1600E+00  0.1600E+00
     33.003  0.0000E+00  0.0000E+00  0.1600E+00  0.1600E+00
     33.161  0.0000E+00  0.0000E+00  0.1600E+00  0.1600E+00
     33.319  0.0000E+00  0.0000E+00  0.1600E+00  0.1600E+00
     33.477  0.0000E+00  0.0000E+00  0.1600E+00  0.1600E+00
     33.635  0.0000E+00  0.0000E+00  0.1600E+00  0.1600E+00
     33.63548347    -13.79408973  301     11.66472180      1.00000000
    -13.794  0.0000E+00  0.0000E+00  0.0000E+00  0.0000E+00  0.0000E+00  0.0000E+00  0.0000E+00  0.0000E+00  0.0000E+00  0.0000E+00  0.0000E+00  0.0000E+00  0.0000E+00  0.0000E+00  0.0000E+00  0.0000E+00  0.0000E+00  0.0000E+00
    -13.636  0.0000E+00  0.0000E+00  0.0000E+00  0.0000E+00  0.0000E+00  0.0000E+00  0.0000E+00  0.0000E+00  0.0000E+00  0.0000E+00  0.0000E+00  0.0000E+00  0.0000E+00  0.0000E+00  0.0000E+00  0.0000E+00  0.0000E+00  0.0000E+00
    -13.478  0.0000E+00  0.0000E+00  0.0000E+00  0.0000E+00  0.0000E+00  0.0000E+00  0.0000E+00  0.0000E+00  0.0000E+00  0.0000E+00  0.0000E+00  0.0000E+00  0.0000E+00  0.0000E+00  0.0000E+00  0.0000E+00  0.0000E+00  0.0000E+00
    -13.320  0.0000E+00  0.0000E+00  0.0000E+00  0.0000E+00  0.0000E+00  0.0000E+00  0.0000E+00  0.0000E+00  0.0000E+00  0.0000E+00  0.0000E+00  0.0000E+00  0.0000E+00  0.0000E+00  0.0000E+00  0.0000E+00  0.0000E+00  0.0000E+00
    -13.162  0.0000E+00  0.0000E+00  0.0000E+00  0.0000E+00  0.0000E+00  0.0000E+00  0.0000E+00  0.0000E+00  0.0000E+00  0.0000E+00  0.0000E+00  0.0000E+00  0.0000E+00  0.0000E+00  0.0000E+00  0.0000E+00  0.0000E+00  0.0000E+00
    -13.004  0.0000E+00  0.0000E+00  0.0000E+00  0.0000E+00  0.0000E+00  0.0000E+00  0.0000E+00  0.0000E+00  0.0000E+00  0.0000E+00  0.0000E+00  0.0000E+00  0.0000E+00  0.0000E+00  0.0000E+00  0.0000E+00  0.0000E+00  0.0000E+00
    -12.845  0.0000E+00  0.0000E+00  0.0000E+00  0.0000E+00  0.0000E+00  0.0000E+00  0.0000E+00  0.0000E+00  0.0000E+00  0.0000E+00  0.0000E+00  0.0000E+00  0.0000E+00  0.0000E+00  0.0000E+00  0.0000E+00  0.0000E+00  0.0000E+00
    -12.687  0.0000E+00  0.0000E+00  0.0000E+00  0.0000E+00  0.0000E+00  0.0000E+00  0.0000E+00  0.0000E+00  0.0000E+00  0.0000E+00  0.0000E+00  0.0000E+00  0.0000E+00  0.0000E+00  0.0000E+00  0.0000E+00  0.0000E+00  0.0000E+00
    -12.529  0.0000E+00  0.0000E+00  0.0000E+00  0.0000E+00  0.0000E+00  0.0000E+00  0.0000E+00  0.0000E+00  0.0000E+00  0.0000E+00  0.0000E+00  0.0000E+00  0.0000E+00  0.0000E+00  0.0000E+00  0.0000E+00  0.0000E+00  0.0000E+00
    -12.371  0.0000E+00  0.0000E+00  0.0000E+00  0.0000E+00  0.0000E+00  0.0000E+00  0.0000E+00  0.0000E+00  0.0000E+00  0.0000E+00  0.0000E+00  0.0000E+00  0.0000E+00  0.0000E+00  0.0000E+00  0.0000E+00  0.0000E+00  0.0000E+00
    -12.213  0.0000E+00  0.0000E+00  0.0000E+00  0.0000E+00  0.0000E+00  0.0000E+00  0.0000E+00  0.0000E+00  0.0000E+00  0.0000E+00  0.0000E+00  0.0000E+00  0.0000E+00  0.0000E+00  0.0000E+00  0.0000E+00  0.0000E+00  0.0000E+00
    -12.055  0.0000E+00  0.0000E+00  0.0000E+00  0.0000E+00  0.0000E+00  0.0000E+00  0.0000E+00  0.0000E+00  0.0000E+00  0.0000E+00  0.0000E+00  0.0000E+00  0.0000E+00  0.0000E+00  0.0000E+00  0.0000E+00  0.0000E+00  0.0000E+00
    -11.897  0.0000E+00  0.0000E+00  0.0000E+00  0.0000E+00  0.0000E+00  0.0000E+00  0.0000E+00  0.0000E+00  0.0000E+00  0.0000E+00  0.0000E+00  0.0000E+00  0.0000E+00  0.0000E+00  0.0000E+00  0.0000E+00  0.0000E+00  0.0000E+00
    -11.739  0.0000E+00  0.0000E+00  0.0000E+00  0.0000E+00  0.0000E+00  0.0000E+00  0.0000E+00  0.0000E+00  0.0000E+00  0.0000E+00  0.0000E+00  0.0000E+00  0.0000E+00  0.0000E+00  0.0000E+00  0.0000E+00  0.0000E+00  0.0000E+00
    -11.581  0.6740E-03  0.6738E-03  0.6959E-06  0.6956E-06  0.2274E-05  0.2273E-05  0.2088E-05  0.2087E-05  0.0000E+00  0.0000E+00  0.0000E+00  0.0000E+00  0.0000E+00  0.0000E+00  0.0000E+00  0.0000E+00  0.0000E+00  0.0000E+00
    -11.423  0.5997E-02  0.5997E-02  0.1776E-04  0.1776E-04  0.3024E-04  0.3024E-04  0.2621E-04  0.2621E-04  0.0000E+00  0.0000E+00  0.0000E+00  0.0000E+00  0.0000E+00  0.0000E+00  0.0000E+00  0.0000E+00  0.0000E+00  0.0000E+00
    -11.265  0.7992E-02  0.7991E-02  0.4887E-04  0.4887E-04  0.6211E-04  0.6211E-04  0.5466E-04  0.5466E-04  0.0000E+00  0.0000E+00  0.0000E+00  0.0000E+00  0.0000E+00  0.0000E+00  0.0000E+00  0.0000E+00  0.0000E+00  0.0000E+00
    -11.106  0.1006E-01  0.1006E-01  0.8507E-04  0.8507E-04  0.1043E-03  0.1043E-03  0.9464E-04  0.9464E-04  0.0000E+00  0.0000E+00  0.0000E+00  0.0000E+00  0.0000E+00  0.0000E+00  0.0000E+00  0.0000E+00  0.0000E+00  0.0000E+00
    -10.948  0.1133E-01  0.1133E-01  0.1321E-03  0.1321E-03  0.1468E-03  0.1468E-03  0.1365E-03  0.1365E-03  0.0000E+00  0.0000E+00  0.0000E+00  0.0000E+00  0.0000E+00  0.0000E+00  0.0000E+00  0.0000E+00  0.0000E+00  0.0000E+00
    -10.790  0.1316E-01  0.1316E-01  0.1779E-03  0.1779E-03  0.2042E-03  0.2042E-03  0.1909E-03  0.1909E-03  0.0000E+00  0.0000E+00  0.0000E+00  0.0000E+00  0.0000E+00  0.0000E+00  0.0000E+00  0.0000E+00  0.0000E+00  0.0000E+00
    -10.632  0.1418E-01  0.1418E-01  0.2259E-03  0.2259E-03  0.2755E-03  0.2755E-03  0.2502E-03  0.2502E-03  0.0000E+00  0.0000E+00  0.0000E+00  0.0000E+00  0.0000E+00  0.0000E+00  0.0000E+00  0.0000E+00  0.0000E+00  0.0000E+00
    -10.474  0.1479E-01  0.1479E-01  0.2883E-03  0.2883E-03  0.3508E-03  0.3507E-03  0.3073E-03  0.3073E-03  0.0000E+00  0.0000E+00  0.0000E+00  0.0000E+00  0.0000E+00  0.0000E+00  0.0000E+00  0.0000E+00  0.0000E+00  0.0000E+00
    -10.316  0.1550E-01  0.1550E-01  0.3586E-03  0.3586E-03  0.4408E-03  0.4408E-03  0.3648E-03  0.3648E-03  0.0000E+00  0.0000E+00  0.0000E+00  0.0000E+00  0.0000E+00  0.0000E+00  0.0000E+00  0.0000E+00  0.0000E+00  0.0000E+00
    -10.158  0.1642E-01  0.1642E-01  0.4184E-03  0.4184E-03  0.5349E-03  0.5349E-03  0.4299E-03  0.4299E-03  0.0000E+00  0.0000E+00  0.0000E+00  0.0000E+00  0.0000E+00  0.0000E+00  0.0000E+00  0.0000E+00  0.0000E+00  0.0000E+00
    -10.000  0.1734E-01  0.1734E-01  0.4778E-03  0.4778E-03  0.6347E-03  0.6347E-03  0.4993E-03  0.4993E-03  0.0000E+00  0.0000E+00  0.0000E+00  0.0000E+00  0.0000E+00  0.0000E+00  0.0000E+00  0.0000E+00  0.0000E+00  0.0000E+00
     -9.842  0.1791E-01  0.1791E-01  0.5532E-03  0.5532E-03  0.7445E-03  0.7445E-03  0.5729E-03  0.5729E-03  0.0000E+00  0.0000E+00  0.0000E+00  0.0000E+00  0.0000E+00  0.0000E+00  0.0000E+00  0.0000E+00  0.0000E+00  0.0000E+00
     -9.684  0.1863E-01  0.1863E-01  0.6350E-03  0.6350E-03  0.8075E-03  0.8075E-03  0.6488E-03  0.6488E-03  0.0000E+00  0.0000E+00  0.0000E+00  0.0000E+00  0.0000E+00  0.0000E+00  0.0000E+00  0.0000E+00  0.0000E+00  0.0000E+00
     -9.525  0.1949E-01  0.1949E-01  0.7140E-03  0.7140E-03  0.8669E-03  0.8669E-03  0.7249E-03  0.7249E-03  0.0000E+00  0.0000E+00  0.0000E+00  0.0000E+00  0.0000E+00  0.0000E+00  0.0000E+00  0.0000E+00  0.0000E+00  0.0000E+00
     -9.367  0.2037E-01  0.2037E-01  0.7931E-03  0.7931E-03  0.9212E-03  0.9212E-03  0.8048E-03  0.8048E-03  0.0000E+00  0.0000E+00  0.0000E+00  0.0000E+00  0.0000E+00  0.0000E+00  0.0000E+00  0.0000E+00  0.0000E+00  0.0000E+00
     -9.209  0.2127E-01  0.2127E-01  0.8683E-03  0.8683E-03  0.9829E-03  0.9829E-03  0.8918E-03  0.8918E-03  0.0000E+00  0.0000E+00  0.0000E+00  0.0000E+00  0.0000E+00  0.0000E+00  0.0000E+00  0.0000E+00  0.0000E+00  0.0000E+00
     -9.051  0.2214E-01  0.2214E-01  0.9512E-03  0.9512E-03  0.1059E-02  0.1059E-02  0.9844E-03  0.9844E-03  0.0000E+00  0.0000E+00  0.0000E+00  0.0000E+00  0.0000E+00  0.0000E+00  0.0000E+00  0.0000E+00  0.0000E+00  0.0000E+00
     -8.893  0.2281E-01  0.2281E-01  0.1049E-02  0.1049E-02  0.1139E-02  0.1139E-02  0.1080E-02  0.1080E-02  0.0000E+00  0.0000E+00  0.0000E+00  0.0000E+00  0.0000E+00  0.0000E+00  0.0000E+00  0.0000E+00  0.0000E+00  0.0000E+00
     -8.735  0.2353E-01  0.2353E-01  0.1148E-02  0.1148E-02  0.1221E-02  0.1221E-02  0.1175E-02  0.1175E-02  0.0000E+00  0.0000E+00  0.0000E+00  0.0000E+00  0.0000E+00  0.0000E+00  0.0000E+00  0.0000E+00  0.0000E+00  0.0000E+00
     -8.577  0.2431E-01  0.2431E-01  0.1245E-02  0.1245E-02  0.1304E-02  0.1304E-02  0.1272E-02  0.1272E-02  0.0000E+00  0.0000E+00  0.0000E+00  0.0000E+00  0.0000E+00  0.0000E+00  0.0000E+00  0.0000E+00  0.0000E+00  0.0000E+00
     -8.419  0.2506E-01  0.2506E-01  0.1344E-02  0.1344E-02  0.1389E-02  0.1389E-02  0.1370E-02  0.1370E-02  0.0000E+00  0.0000E+00  0.0000E+00  0.0000E+00  0.0000E+00  0.0000E+00  0.0000E+00  0.0000E+00  0.0000E+00  0.0000E+00
     -8.261  0.2562E-01  0.2562E-01  0.1446E-02  0.1446E-02  0.1489E-02  0.1489E-02  0.1470E-02  0.1470E-02  0.0000E+00  0.0000E+00  0.0000E+00  0.0000E+00  0.0000E+00  0.0000E+00  0.0000E+00  0.0000E+00  0.0000E+00  0.0000E+00
     -8.103  0.2621E-01  0.2621E-01  0.1549E-02  0.1549E-02  0.1602E-02  0.1602E-02  0.1575E-02  0.1575E-02  0.0000E+00  0.0000E+00  0.0000E+00  0.0000E+00  0.0000E+00  0.0000E+00  0.0000E+00  0.0000E+00  0.0000E+00  0.0000E+00
     -7.944  0.2681E-01  0.2681E-01  0.1655E-02  0.1655E-02  0.1710E-02  0.1710E-02  0.1684E-02  0.1684E-02  0.0000E+00  0.0000E+00  0.0000E+00  0.0000E+00  0.0000E+00  0.0000E+00  0.0000E+00  0.0000E+00  0.0000E+00  0.0000E+00
     -7.786  0.2733E-01  0.2733E-01  0.1772E-02  0.1772E-02  0.1817E-02  0.1817E-02  0.1798E-02  0.1798E-02  0.0000E+00  0.0000E+00  0.0000E+00  0.0000E+00  0.0000E+00  0.0000E+00  0.0000E+00  0.0000E+00  0.0000E+00  0.0000E+00
     -7.628  0.2792E-01  0.2792E-01  0.1886E-02  0.1886E-02  0.1922E-02  0.1922E-02  0.1912E-02  0.1912E-02  0.0000E+00  0.0000E+00  0.0000E+00  0.0000E+00  0.0000E+00  0.0000E+00  0.0000E+00  0.0000E+00  0.0000E+00  0.0000E+00
     -7.470  0.2856E-01  0.2856E-01  0.2000E-02  0.2000E-02  0.2025E-02  0.2025E-02  0.2029E-02  0.2029E-02  0.0000E+00  0.0000E+00  0.0000E+00  0.0000E+00  0.0000E+00  0.0000E+00  0.0000E+00  0.0000E+00  0.0000E+00  0.0000E+00
     -7.312  0.2924E-01  0.2924E-01  0.2114E-02  0.2114E-02  0.2134E-02  0.2134E-02  0.2148E-02  0.2148E-02  0.0000E+00  0.0000E+00  0.0000E+00  0.0000E+00  0.0000E+00  0.0000E+00  0.0000E+00  0.0000E+00  0.0000E+00  0.0000E+00
     -7.154  0.2991E-01  0.2991E-01  0.2231E-02  0.2231E-02  0.2262E-02  0.2262E-02  0.2269E-02  0.2269E-02  0.0000E+00  0.0000E+00  0.0000E+00  0.0000E+00  0.0000E+00  0.0000E+00  0.0000E+00  0.0000E+00  0.0000E+00  0.0000E+00
     -6.996  0.3064E-01  0.3064E-01  0.2351E-02  0.2351E-02  0.2389E-02  0.2389E-02  0.2392E-02  0.2392E-02  0.0000E+00  0.0000E+00  0.0000E+00  0.0000E+00  0.0000E+00  0.0000E+00  0.0000E+00  0.0000E+00  0.0000E+00  0.0000E+00
     -6.838  0.3146E-01  0.3146E-01  0.2472E-02  0.2472E-02  0.2515E-02  0.2515E-02  0.2521E-02  0.2521E-02  0.0000E+00  0.0000E+00  0.0000E+00  0.0000E+00  0.0000E+00  0.0000E+00  0.0000E+00  0.0000E+00  0.0000E+00  0.0000E+00
     -6.680  0.3257E-01  0.3257E-01  0.2608E-02  0.2608E-02  0.2660E-02  0.2660E-02  0.2672E-02  0.2672E-02  0.0000E+00  0.0000E+00  0.0000E+00  0.0000E+00  0.0000E+00  0.0000E+00  0.0000E+00  0.0000E+00  0.0000E+00  0.0000E+00
     -6.522  0.3385E-01  0.3385E-01  0.2759E-02  0.2759E-02  0.2805E-02  0.2805E-02  0.2838E-02  0.2838E-02  0.0000E+00  0.0000E+00  0.0000E+00  0.0000E+00  0.0000E+00  0.0000E+00  0.0000E+00  0.0000E+00  0.0000E+00  0.0000E+00
     -6.363  0.3550E-01  0.3550E-01  0.2921E-02  0.2921E-02  0.2952E-02  0.2952E-02  0.3038E-02  0.3038E-02  0.0000E+00  0.0000E+00  0.0000E+00  0.0000E+00  0.0000E+00  0.0000E+00  0.0000E+00  0.0000E+00  0.0000E+00  0.0000E+00
     -6.205  0.3734E-01  0.3734E-01  0.3094E-02  0.3094E-02  0.3109E-02  0.3109E-02  0.3265E-02  0.3265E-02  0.0000E+00  0.0000E+00  0.0000E+00  0.0000E+00  0.0000E+00  0.0000E+00  0.0000E+00  0.0000E+00  0.0000E+00  0.0000E+00
     -6.047  0.4284E-01  0.4284E-01  0.3515E-02  0.3515E-02  0.3310E-02  0.3310E-02  0.3955E-02  0.3955E-02  0.0000E+00  0.0000E+00  0.0000E+00  0.0000E+00  0.0000E+00  0.0000E+00  0.0000E+00  0.0000E+00  0.0000E+00  0.0000E+00
     -5.889  0.4155E-01  0.4155E-01  0.3484E-02  0.3484E-02  0.3488E-02  0.3488E-02  0.3774E-02  0.3774E-02  0.0000E+00  0.0000E+00  0.0000E+00  0.0000E+00  0.0000E+00  0.0000E+00  0.0000E+00  0.0000E+00  0.0000E+00  0.0000E+00