    4    4  100    2
  0.5717550E+01  0.2513094E-09  0.2513094E-09  0.4181402E-09  0.1500000E-16
   1.0000000000000000E-004
  CAR 
 unknown system                          
     16     96     16
 
  0.3742002E-15  0.3742002E-15  0.3742002E-15  0.8503401E-03
    1      -11.638200    -11.638190   1.000000   1.000000
    2       -5.523643     -5.523632   1.000000   1.000000
    3       -3.357466     -3.357462   1.000000   1.000000
    4        8.110537      8.110534   1.000000   1.000000
    5        8.110627      8.110625   1.000000   1.000000
    6       10.871287     10.871286   1.000000   1.000000
    7       11.517333     11.517329   1.000000   1.000000
    8       11.517435     11.517431   1.000000   1.000000
    9       16.589741     16.589739   0.000000   0.000000
   10       16.589837     16.589832   0.000000   0.000000
   11       17.116385     17.116382   0.000000   0.000000
   12       20.775790     20.775804   0.000000   0.000000
   13       21.594315     21.594309   0.000000   0.000000
   14       21.594435     21.594429   0.000000   0.000000
   15       27.977103     27.977128   0.000000   0.000000
   16       30.695859     30.448844   0.000000   0.000000
 
  0.7142857E-01  0.3742194E-15  0.3742002E-15  0.5102041E-02
    1      -11.503188    -11.503178   1.000000   1.000000
    2       -5.403436     -5.403426   1.000000   1.000000
    3       -3.228050     -3.228046   1.000000   1.000000
    4        7.434861      7.434860   1.000000   1.000000
    5        7.815535      7.815533   1.000000   1.000000
    6       10.662706     10.662704   1.000000   1.000000
    7       10.934840     10.934837   1.000000   1.000000
    8       11.255286     11.255283   1.000000   1.000000
    9       16.697466     16.697463   0.000000   0.000000
   10       16.971378     16.971375   0.000000   0.000000
   11       17.376041     17.376038   0.000000   0.000000
   12       21.174789     21.174801   0.000000   0.000000
   13       21.736803     21.736797   0.000000   0.000000
   14       22.052621     22.052614   0.000000   0.000000
   15       28.101180     28.101203   0.000000   0.000000
   16       29.532634     29.532637   0.000000   0.000000
 
  0.1428571E+00  0.3778240E-15  0.3742002E-15  0.5102041E-02
    1      -11.099065    -11.099055   1.000000   1.000000
    2       -5.043538     -5.043528   1.000000   1.000000
    3       -2.844834     -2.844829   1.000000   1.000000
    4        5.756800      5.756800   1.000000   1.000000
    5        7.103253      7.103251   1.000000   1.000000
    6        9.503569      9.503567   1.000000   1.000000
    7       10.084733     10.084731   1.000000   1.000000
    8       10.608460     10.608457   1.000000   1.000000
    9       16.793671     16.793669   0.000000   0.000000
   10       17.879178     17.879174   0.000000   0.000000
   11       17.935947     17.935945   0.000000   0.000000
   12       22.062830     22.062826   0.000000   0.000000
   13       22.142555     22.142564   0.000000   0.000000
   14       23.249008     23.249001   0.000000   0.000000
   15       27.577441     27.577442   0.000000   0.000000
   16       28.457675     28.457694   0.000000   0.000000
 
  0.2142857E+00  0.3806259E-15  0.3742002E-15  0.5102041E-02
    1      -10.429026    -10.429016   1.000000   1.000000
    2       -4.446256     -4.446246   1.000000   1.000000
    3       -2.227030     -2.227026   1.000000   1.000000
    4        3.634054      3.634056   1.000000   1.000000
    5        6.268579      6.268577   1.000000   1.000000
    6        7.689203      7.689203   1.000000   1.000000
    7        9.190621      9.190620   1.000000   1.000000
    8        9.834835      9.834832   1.000000   1.000000
    9       16.732117     16.732118   0.000000   0.000000
   10       18.555438     18.555436   0.000000   0.000000
   11       18.860152     18.860148   0.000000   0.000000
   12       22.461007     22.461008   0.000000   0.000000
   13       22.594527     22.594529   0.000000   0.000000
   14       24.861998     24.861989   0.000000   0.000000
   15       26.602682     26.602686   0.000000   0.000000
   16       28.828658     28.828663   0.000000   0.000000
 
  0.2857143E+00  0.3671018E-15  0.3742002E-15  0.5102041E-02
    1       -9.499921     -9.499912   1.000000   1.000000
    2       -3.616430     -3.616420   1.000000   1.000000
    3       -1.442577     -1.442572   1.000000   1.000000
    4        1.444281      1.444283   1.000000   1.000000
    5        5.503899      5.503898   1.000000   1.000000
    6        5.748723      5.748726   1.000000   1.000000
    7        8.034404      8.034403   1.000000   1.000000
    8        9.113331      9.113329   1.000000   1.000000
    9       16.571800     16.571803   0.000000   0.000000
   10       19.168573     19.168571   0.000000   0.000000
   11       19.565043     19.565039   0.000000   0.000000
   12       21.654224     21.654224   0.000000   0.000000
   13       22.844619     22.844626   0.000000   0.000000
   14       26.567416     26.567406   0.000000   0.000000
   15       27.698217     27.698218   0.000000   0.000000
   16       28.073028     28.073024   0.000000   0.000000
 
  0.3571429E+00  0.3813174E-15  0.3742002E-15  0.5102041E-02
    1       -8.327123     -8.327114   1.000000   1.000000
    2       -2.564317     -2.564308   1.000000   1.000000
    3       -1.303988     -1.303980   1.000000   1.000000
    4        0.124601      0.124602   1.000000   1.000000
    5        3.830549      3.830553   1.000000   1.000000
    6        4.911846      4.911845   1.000000   1.000000
    7        6.724658      6.724659   1.000000   1.000000
    8        8.550143      8.550141   1.000000   1.000000
    9       16.386687     16.386692   0.000000   0.000000
   10       19.737405     19.737402   0.000000   0.000000
   11       19.921191     19.921187   0.000000   0.000000
   12       20.584352     20.584351   0.000000   0.000000
   13       23.222060     23.222071   0.000000   0.000000
   14       26.991611     26.991609   0.000000   0.000000
   15       28.067485     28.067474   0.000000   0.000000
   16       29.398949     29.398948   0.000000   0.000000
 
  0.4285714E+00  0.3841193E-15  0.3742002E-15  0.5102041E-02
    1       -6.962575     -6.962566   1.000000   1.000000
    2       -3.035338     -3.035331   1.000000   1.000000
    3       -1.320816     -1.320807   1.000000   1.000000
    4        0.879711      0.879713   1.000000   1.000000
    5        2.042314      2.042318   1.000000   1.000000
    6        4.540854      4.540853   1.000000   1.000000
    7        5.480900      5.480901   1.000000   1.000000
    8        8.196118      8.196116   1.000000   1.000000
    9       16.238395     16.238400   0.000000   0.000000
   10       19.914071     19.914071   0.000000   0.000000
   11       20.047196     20.047193   0.000000   0.000000
   12       20.171170     20.171168   0.000000   0.000000
   13       23.636100     23.636112   0.000000   0.000000
   14       26.001971     26.001970   0.000000   0.000000
   15       29.091772     29.091760   0.000000   0.000000
   16       30.438315     30.438314   0.000000   0.000000
 
  0.5000000E+00  0.3542694E-15  0.3742002E-15  0.2551020E-02
    1       -5.926603     -5.926593   1.000000   1.000000
    2       -4.262881     -4.262876   1.000000   1.000000
    3       -0.283414     -0.283404   1.000000   1.000000
    4        0.818921      0.818926   1.000000   1.000000
    5        1.392691      1.392693   1.000000   1.000000
    6        4.414575      4.414574   1.000000   1.000000
    7        4.861861      4.861862   1.000000   1.000000
    8        8.074563      8.074560   1.000000   1.000000
    9       16.180339     16.180345   0.000000   0.000000
   10       19.693077     19.693076   0.000000   0.000000
   11       20.071558     20.071555   0.000000   0.000000
   12       20.333990     20.333988   0.000000   0.000000
   13       23.904313     23.904326   0.000000   0.000000
   14       25.506583     25.506583   0.000000   0.000000
   15       29.433038     29.433026   0.000000   0.000000
   16       30.722652     30.722652   0.000000   0.000000
 
  0.7142857E-01  0.7142857E-01  0.3742002E-15  0.5102041E-02
    1      -11.233615    -11.233605   1.000000   1.000000
    2       -5.163381     -5.163371   1.000000   1.000000
    3       -2.971651     -2.971647   1.000000   1.000000
    4        6.363944      6.363943   1.000000   1.000000
    5        7.193694      7.193692   1.000000   1.000000
    6       10.002745     10.002743   1.000000   1.000000
    7       10.286817     10.286815   1.000000   1.000000
    8       10.730639     10.730635   1.000000   1.000000
    9       17.020325     17.020322   0.000000   0.000000
   10       17.391418     17.391415   0.000000   0.000000
   11       17.792810     17.792808   0.000000   0.000000
   12       21.854504     21.854514   0.000000   0.000000
   13       22.021439     22.021435   0.000000   0.000000
   14       22.817571     22.817565   0.000000   0.000000
   15       28.347912     28.347932   0.000000   0.000000
   16       28.529405     28.529405   0.000000   0.000000
 
  0.1428571E+00  0.7142857E-01  0.3742002E-15  0.1020408E-01
    1      -10.696480    -10.696471   1.000000   1.000000
    2       -4.684796     -4.684786   1.000000   1.000000
    3       -2.470135     -2.470131   1.000000   1.000000
    4        4.613132      4.613133   1.000000   1.000000
    5        6.240647      6.240646   1.000000   1.000000
    6        8.504422      8.504421   1.000000   1.000000
    7        9.589809      9.589807   1.000000   1.000000
    8        9.898444      9.898441   1.000000   1.000000
    9       17.220646     17.220646   0.000000   0.000000
   10       18.179102     18.179099   0.000000   0.000000
   11       18.419414     18.419412   0.000000   0.000000
   12       22.494785     22.494783   0.000000   0.000000
   13       22.575235     22.575241   0.000000   0.000000
   14       24.061214     24.061208   0.000000   0.000000
   15       27.054548     27.054549   0.000000   0.000000
   16       28.808060     28.808074   0.000000   0.000000
 
  0.2142857E+00  0.7142857E-01  0.3742002E-15  0.1020408E-01
    1       -9.896632     -9.896623   1.000000   1.000000
    2       -3.971155     -3.971146   1.000000   1.000000
    3       -1.758701     -1.758696   1.000000   1.000000
    4        2.526712      2.526714   1.000000   1.000000
    5        5.338942      5.338941   1.000000   1.000000
    6        6.704444      6.704445   1.000000   1.000000
    7        8.599193      8.599192   1.000000   1.000000
    8        9.074738      9.074735   1.000000   1.000000
    9       17.143189     17.143191   0.000000   0.000000
   10       18.974609     18.974606   0.000000   0.000000
   11       19.100208     19.100205   0.000000   0.000000
   12       22.319005     22.319007   0.000000   0.000000
   13       22.953519     22.953521   0.000000   0.000000
   14       25.601827     25.601820   0.000000   0.000000
   15       26.917652     26.917652   0.000000   0.000000
   16       28.563197     28.563193   0.000000   0.000000
 
  0.2857143E+00  0.7142857E-01  0.3742002E-15  0.1020408E-01
    1       -8.844263     -8.844254   1.000000   1.000000
    2       -3.029731     -3.029721   1.000000   1.000000
    3       -1.044029     -1.044022   1.000000   1.000000
    4        0.558832      0.558834   1.000000   1.000000
    5        4.614395      4.614394   1.000000   1.000000
    6        4.813274      4.813277   1.000000   1.000000
    7        7.379569      7.379569   1.000000   1.000000
    8        8.394895      8.394893   1.000000   1.000000
    9       17.012084     17.012087   0.000000   0.000000
   10       19.079795     19.079793   0.000000   0.000000
   11       19.774682     19.774679   0.000000   0.000000
   12       21.770063     21.770063   0.000000   0.000000
   13       23.324460     23.324467   0.000000   0.000000
   14       27.166346     27.166339   0.000000   0.000000
   15       27.567573     27.567568   0.000000   0.000000
   16       28.139269     28.139267   0.000000   0.000000
 
  0.3571429E+00  0.7142857E-01  0.3742002E-15  0.1020408E-01
    1       -7.565646     -7.565637   1.000000   1.000000
    2       -2.062934     -2.062926   1.000000   1.000000
    3       -1.877314     -1.877306   1.000000   1.000000
    4        0.528648      0.528650   1.000000   1.000000
    5        2.973272      2.973276   1.000000   1.000000
    6        4.121818      4.121818   1.000000   1.000000
    7        6.077810      6.077811   1.000000   1.000000
    8        7.918868      7.918866   1.000000   1.000000
    9       16.928445     16.928448   0.000000   0.000000
   10       18.572150     18.572149   0.000000   0.000000
   11       20.377707     20.377703   0.000000   0.000000
   12       21.675305     21.675303   0.000000   0.000000
   13       23.667926     23.667937   0.000000   0.000000
   14       26.445501     26.445499   0.000000   0.000000
   15       28.574478     28.574467   0.000000   0.000000
   16       29.814947     29.814942   0.000000   0.000000
 
  0.4285714E+00  0.7142857E-01  0.3742002E-15  0.1020408E-01
    1       -6.197930     -6.197920   1.000000   1.000000
    2       -3.772661     -3.772654   1.000000   1.000000
    3       -0.596799     -0.596790   1.000000   1.000000
    4        1.318414      1.318416   1.000000   1.000000
    5        1.334123      1.334127   1.000000   1.000000
    6        3.901960      3.901960   1.000000   1.000000
    7        5.025798      5.025799   1.000000   1.000000
    8        7.673489      7.673487   1.000000   1.000000
    9       16.915862     16.915867   0.000000   0.000000
   10       18.141342     18.141341   0.000000   0.000000
   11       20.758193     20.758190   0.000000   0.000000
   12       21.705628     21.705626   0.000000   0.000000
   13       24.013747     24.013759   0.000000   0.000000
   14       25.630396     25.630396   0.000000   0.000000
   15       29.326529     29.326517   0.000000   0.000000
   16       30.619298     30.619297   0.000000   0.000000
 
  0.1428571E+00  0.1428571E+00  0.3742002E-15  0.5102041E-02
    1      -10.029375    -10.029365   1.000000   1.000000
    2       -4.089791     -4.089781   1.000000   1.000000
    3       -1.870458     -1.870454   1.000000   1.000000
    4        3.205150      3.205152   1.000000   1.000000
    5        4.889988      4.889988   1.000000   1.000000
    6        7.253299      7.253299   1.000000   1.000000
    7        8.790983      8.790981   1.000000   1.000000
    8        8.835071      8.835070   1.000000   1.000000
    9       17.979656     17.979654   0.000000   0.000000
   10       18.312738     18.312737   0.000000   0.000000
   11       19.160101     19.160099   0.000000   0.000000
   12       22.491125     22.491129   0.000000   0.000000
   13       23.296560     23.296557   0.000000   0.000000
   14       24.920453     24.920452   0.000000   0.000000
   15       26.668950     26.668950   0.000000   0.000000
   16       28.641869     28.641870   0.000000   0.000000
 
  0.2142857E+00  0.1428571E+00  0.3742002E-15  0.1020408E-01
    1       -9.105190     -9.105181   1.000000   1.000000
    2       -3.264234     -3.264224   1.000000   1.000000
    3       -1.133745     -1.133740   1.000000   1.000000
    4        1.503528      1.503531   1.000000   1.000000
    5        3.757536      3.757536   1.000000   1.000000
    6        5.714581      5.714584   1.000000   1.000000
    7        7.791141      7.791140   1.000000   1.000000
    8        7.814413      7.814412   1.000000   1.000000
    9       17.592041     17.592039   0.000000   0.000000
   10       19.112925     19.112924   0.000000   0.000000
   11       19.995549     19.995547   0.000000   0.000000
   12       22.285861     22.285863   0.000000   0.000000
   13       24.011696     24.011696   0.000000   0.000000
   14       26.060350     26.060349   0.000000   0.000000
   15       26.677391     26.677391   0.000000   0.000000
   16       27.945359     27.945355   0.000000   0.000000
 
  0.2857143E+00  0.1428571E+00  0.3742002E-15  0.1020408E-01
    1       -7.940291     -7.940282   1.000000   1.000000
    2       -2.219754     -2.219745   1.000000   1.000000
    3       -1.132091     -1.132083   1.000000   1.000000
    4        0.495241      0.495242   1.000000   1.000000
    5        3.031385      3.031386   1.000000   1.000000
    6        3.996802      3.996806   1.000000   1.000000
    7        6.609480      6.609480   1.000000   1.000000
    8        7.095564      7.095563   1.000000   1.000000
    9       17.060412     17.060410   0.000000   0.000000
   10       19.154811     19.154813   0.000000   0.000000
   11       20.835839     20.835836   0.000000   0.000000
   12       22.676140     22.676140   0.000000   0.000000
   13       24.389008     24.389014   0.000000   0.000000
   14       26.833153     26.833151   0.000000   0.000000
   15       27.620754     27.620748   0.000000   0.000000
   16       27.691909     27.691907   0.000000   0.000000
 
  0.3571429E+00  0.1428571E+00  0.3742002E-15  0.1020408E-01
    1       -6.587177     -6.587168   1.000000   1.000000
    2       -2.768657     -2.768649   1.000000   1.000000
    3       -0.989964     -0.989956   1.000000   1.000000
    4        1.166643      1.166645   1.000000   1.000000
    5        2.303439      2.303444   1.000000   1.000000
    6        2.705247      2.705247   1.000000   1.000000
    7        5.405393      5.405393   1.000000   1.000000
    8        6.689901      6.689900   1.000000   1.000000
    9       16.638084     16.638083   0.000000   0.000000
   10       18.906013     18.906016   0.000000   0.000000
   11       21.574676     21.574672   0.000000   0.000000
   12       23.176942     23.176941   0.000000   0.000000
   13       24.605956     24.605966   0.000000   0.000000
   14       25.906287     25.906286   0.000000   0.000000
   15       28.875734     28.875724   0.000000   0.000000
   16       29.370027     29.370023   0.000000   0.000000
 
  0.4285714E+00  0.1428571E+00  0.3742002E-15  0.5102041E-02
    1       -5.556637     -5.556627   1.000000   1.000000
    2       -3.963592     -3.963585   1.000000   1.000000
    3        0.026706      0.026715   1.000000   1.000000
    4        1.123226      1.123230   1.000000   1.000000
    5        1.546938      1.546941   1.000000   1.000000
    6        2.746487      2.746486   1.000000   1.000000
    7        4.752738      4.752739   1.000000   1.000000
    8        6.555145      6.555144   1.000000   1.000000
    9       16.478224     16.478223   0.000000   0.000000
   10       18.795932     18.795935   0.000000   0.000000
   11       21.902359     21.902355   0.000000   0.000000
   12       23.365242     23.365239   0.000000   0.000000
   13       24.751424     24.751436   0.000000   0.000000
   14       25.401351     25.401351   0.000000   0.000000
   15       29.349686     29.349675   0.000000   0.000000
   16       30.502187     30.502301   0.000000   0.000000
 
  0.2142857E+00  0.2142857E+00  0.3742002E-15  0.5102041E-02
    1       -8.066778     -8.066769   1.000000   1.000000
    2       -2.334943     -2.334934   1.000000   1.000000
    3       -0.778130     -0.778122   1.000000   1.000000
    4        0.833485      0.833486   1.000000   1.000000
    5        2.222242      2.222243   1.000000   1.000000
    6        4.634677      4.634681   1.000000   1.000000
    7        6.488517      6.488516   1.000000   1.000000
    8        6.826885      6.826885   1.000000   1.000000
    9       16.720400     16.720398   0.000000   0.000000
   10       20.475686     20.475686   0.000000   0.000000
   11       21.008867     21.008865   0.000000   0.000000
   12       22.545978     22.545980   0.000000   0.000000
   13       25.386009     25.386007   0.000000   0.000000
   14       26.482389     26.482393   0.000000   0.000000
   15       26.663524     26.663523   0.000000   0.000000
   16       27.113822     27.113819   0.000000   0.000000
 
  0.2857143E+00  0.2142857E+00  0.3742002E-15  0.1020408E-01
    1       -6.810099     -6.810090   1.000000   1.000000
    2       -1.782687     -1.782679   1.000000   1.000000
    3       -1.204493     -1.204484   1.000000   1.000000
    4        1.039277      1.039278   1.000000   1.000000
    5        1.558444      1.558445   1.000000   1.000000
    6        3.286027      3.286032   1.000000   1.000000
    7        5.627598      5.627597   1.000000   1.000000
    8        5.715092      5.715093   1.000000   1.000000
    9       15.820476     15.820476   0.000000   0.000000
   10       21.212511     21.212512   0.000000   0.000000
   11       22.004748     22.004746   0.000000   0.000000
   12       23.491815     23.491814   0.000000   0.000000
   13       26.006760     26.006764   0.000000   0.000000
   14       26.143521     26.143519   0.000000   0.000000
   15       27.434290     27.434287   0.000000   0.000000
   16       27.773447     27.773444   0.000000   0.000000
 
  0.3571429E+00  0.2142857E+00  0.3742002E-15  0.1020408E-01
    1       -5.464618     -5.464609   1.000000   1.000000
    2       -3.276143     -3.276136   1.000000   1.000000
    3        0.038203      0.038211   1.000000   1.000000
    4        0.732545      0.732547   1.000000   1.000000
    5        1.852097      1.852103   1.000000   1.000000
    6        2.325838      2.325838   1.000000   1.000000
    7        4.712591      4.712592   1.000000   1.000000
    8        5.252305      5.252305   1.000000   1.000000
    9       15.315084     15.315084   0.000000   0.000000
   10       21.274123     21.274124   0.000000   0.000000
   11       22.814405     22.814402   0.000000   0.000000
   12       24.496569     24.496567   0.000000   0.000000
   13       25.331479     25.331479   0.000000   0.000000
   14       26.109288     26.109295   0.000000   0.000000
   15       28.844748     28.844743   0.000000   0.000000
   16       29.066176     29.066167   0.000000   0.000000
 
  0.2857143E+00  0.2857143E+00  0.3742002E-15  0.5102041E-02
    1       -5.509718     -5.509709   1.000000   1.000000
    2       -2.668443     -2.668434   1.000000   1.000000
    3       -0.029003     -0.028995   1.000000   1.000000
    4       -0.021140     -0.021139   1.000000   1.000000
    5        2.327735      2.327736   1.000000   1.000000
    6        2.502229      2.502235   1.000000   1.000000
    7        4.460774      4.460774   1.000000   1.000000
    8        4.744227      4.744228   1.000000   1.000000
    9       14.886653     14.886652   0.000000   0.000000
   10       23.093862     23.093861   0.000000   0.000000
   11       23.436739     23.436737   0.000000   0.000000
   12       24.045451     24.045450   0.000000   0.000000
   13       25.340977     25.340977   0.000000   0.000000
   14       27.651022     27.651019   0.000000   0.000000
   15       27.764774     27.764775   0.000000   0.000000
   16       27.994331     27.994327   0.000000   0.000000
 
  0.3571429E+00  0.2857143E+00  0.3742002E-15  0.5102041E-02
    1       -4.455243     -4.455233   1.000000   1.000000
    2       -3.578903     -3.578895   1.000000   1.000000
    3       -0.464172     -0.464171   1.000000   1.000000
    4        0.956912      0.956920   1.000000   1.000000
    5        1.656458      1.656464   1.000000   1.000000
    6        3.056974      3.056975   1.000000   1.000000
    7        4.029064      4.029065   1.000000   1.000000
    8        4.050023      4.050023   1.000000   1.000000
    9       14.551268     14.551268   0.000000   0.000000
   10       23.789369     23.789368   0.000000   0.000000
   11       23.875742     23.875741   0.000000   0.000000
   12       24.741554     24.741553   0.000000   0.000000
   13       25.198906     25.198902   0.000000   0.000000
   14       27.600846     27.600843   0.000000   0.000000
   15       27.859015     27.859016   0.000000   0.000000
   16       29.000047     29.000041   0.000000   0.000000
 
  0.3742002E-15  0.3742002E-15  0.1666667E+00  0.1700680E-02
    1      -11.438602    -11.438592   1.000000   1.000000
    2       -6.828404     -6.828395   1.000000   1.000000
    3       -1.714453     -1.714448   1.000000   1.000000
    4        8.270990      8.270987   1.000000   1.000000
    5        8.271079      8.271078   1.000000   1.000000
    6        9.589096      9.589096   1.000000   1.000000
    7       11.152489     11.152485   1.000000   1.000000
    8       11.152586     11.152582   1.000000   1.000000
    9       16.982209     16.982207   0.000000   0.000000
   10       16.982303     16.982298   0.000000   0.000000
   11       17.837891     17.837888   0.000000   0.000000
   12       20.690542     20.690555   0.000000   0.000000
   13       21.213095     21.213089   0.000000   0.000000
   14       21.213212     21.213206   0.000000   0.000000
   15       28.067987     28.068010   0.000000   0.000000
   16       30.215208     30.215217   0.000000   0.000000
 
  0.7142857E-01  0.3742194E-15  0.1666667E+00  0.1020408E-01
    1      -11.303778    -11.303769   1.000000   1.000000
    2       -6.701466     -6.701457   1.000000   1.000000
    3       -1.595093     -1.595087   1.000000   1.000000
    4        7.597401      7.597399   1.000000   1.000000
    5        7.978257      7.978255   1.000000   1.000000
    6        9.487092      9.487091   1.000000   1.000000
    7       10.568896     10.568893   1.000000   1.000000
    8       10.892593     10.892589   1.000000   1.000000
    9       16.992224     16.992221   0.000000   0.000000
   10       17.368904     17.368900   0.000000   0.000000
   11       18.076724     18.076721   0.000000   0.000000
   12       21.035512     21.035521   0.000000   0.000000
   13       21.383105     21.383102   0.000000   0.000000
   14       21.670637     21.670631   0.000000   0.000000
   15       28.131595     28.131617   0.000000   0.000000
   16       29.871632     29.871634   0.000000   0.000000
 
  0.1428571E+00  0.3778240E-15  0.1666667E+00  0.1020408E-01
    1      -10.900231    -10.900222   1.000000   1.000000
    2       -6.321958     -6.321949   1.000000   1.000000
    3       -1.242569     -1.242564   1.000000   1.000000
    4        5.925792      5.925793   1.000000   1.000000
    5        7.270683      7.270682   1.000000   1.000000
    6        8.871768      8.871768   1.000000   1.000000
    7        9.445112      9.445110   1.000000   1.000000
    8       10.247124     10.247121   1.000000   1.000000
    9       16.907887     16.907887   0.000000   0.000000
   10       18.305615     18.305611   0.000000   0.000000
   11       18.453362     18.453359   0.000000   0.000000
   12       21.466723     21.466722   0.000000   0.000000
   13       22.255720     22.255725   0.000000   0.000000
   14       22.862055     22.862048   0.000000   0.000000
   15       27.919718     27.919723   0.000000   0.000000
   16       28.482141     28.482154   0.000000   0.000000
 
  0.2142857E+00  0.3806259E-15  0.1666667E+00  0.1020408E-01
    1      -10.231250    -10.231241   1.000000   1.000000
    2       -5.694186     -5.694177   1.000000   1.000000
    3       -0.680129     -0.680124   1.000000   1.000000
    4        3.817712      3.817714   1.000000   1.000000
    5        6.439708      6.439706   1.000000   1.000000
    6        7.095899      7.095900   1.000000   1.000000
    7        8.855606      8.855605   1.000000   1.000000
    8        9.473063      9.473060   1.000000   1.000000
    9       16.735108     16.735110   0.000000   0.000000
   10       18.655498     18.655496   0.000000   0.000000
   11       19.344842     19.344837   0.000000   0.000000
   12       21.478494     21.478496   0.000000   0.000000
   13       23.422981     23.422982   0.000000   0.000000
   14       24.452609     24.452601   0.000000   0.000000
   15       26.633048     26.633048   0.000000   0.000000
   16       28.389007     28.389014   0.000000   0.000000
 
  0.2857143E+00  0.3671018E-15  0.1666667E+00  0.1020408E-01
    1       -9.303727     -9.303718   1.000000   1.000000
    2       -4.827356     -4.827347   1.000000   1.000000
    3       -0.035249     -0.035243   1.000000   1.000000
    4        1.708076      1.708078   1.000000   1.000000
    5        5.102106      5.102109   1.000000   1.000000
    6        5.678084      5.678082   1.000000   1.000000
    7        8.099927      8.099926   1.000000   1.000000
    8        8.752363      8.752360   1.000000   1.000000
    9       16.585242     16.585245   0.000000   0.000000
   10       18.791017     18.791015   0.000000   0.000000
   11       20.126338     20.126334   0.000000   0.000000
   12       20.820604     20.820608   0.000000   0.000000
   13       24.149446     24.149446   0.000000   0.000000
   14       25.887794     25.887793   0.000000   0.000000
   15       26.110490     26.110481   0.000000   0.000000
   16       28.884021     28.884022   0.000000   0.000000
 
  0.3571429E+00  0.3813174E-15  0.1666667E+00  0.1020408E-01
    1       -8.133306     -8.133297   1.000000   1.000000
    2       -3.745091     -3.745082   1.000000   1.000000
    3       -0.876416     -0.876410   1.000000   1.000000
    4        1.274474      1.274476   1.000000   1.000000
    5        3.162582      3.162586   1.000000   1.000000
    6        5.087323      5.087322   1.000000   1.000000
    7        7.130474      7.130474   1.000000   1.000000
    8        8.188518      8.188515   1.000000   1.000000
    9       16.470816     16.470821   0.000000   0.000000
   10       18.992215     18.992215   0.000000   0.000000
   11       19.986125     19.986129   0.000000   0.000000
   12       20.549355     20.549351   0.000000   0.000000
   13       24.438395     24.438400   0.000000   0.000000
   14       25.036727     25.036726   0.000000   0.000000
   15       27.536250     27.536240   0.000000   0.000000
   16       30.311833     30.311829   0.000000   0.000000
 
  0.4285714E+00  0.3841193E-15  0.1666667E+00  0.1020408E-01