Automatically generated mesh
      96
Reciprocal lattice
    0.00000000000000    0.00000000000000    0.00000000000000             1
    0.07142857142857    0.00000000000000    0.00000000000000             6
    0.14285714285714    0.00000000000000    0.00000000000000             6
    0.21428571428571    0.00000000000000    0.00000000000000             6
    0.28571428571429    0.00000000000000    0.00000000000000             6
    0.35714285714286    0.00000000000000    0.00000000000000             6
    0.42857142857143    0.00000000000000    0.00000000000000             6
    0.50000000000000    0.00000000000000    0.00000000000000             3
    0.07142857142857    0.07142857142857    0.00000000000000             6
    0.14285714285714    0.07142857142857    0.00000000000000            12
    0.21428571428571    0.07142857142857    0.00000000000000            12
    0.28571428571429    0.07142857142857    0.00000000000000            12
    0.35714285714286    0.07142857142857    0.00000000000000            12
    0.42857142857143    0.07142857142857    0.00000000000000            12
    0.14285714285714    0.14285714285714    0.00000000000000             6
    0.21428571428571    0.14285714285714    0.00000000000000            12
    0.28571428571429    0.14285714285714    0.00000000000000            12
    0.35714285714286    0.14285714285714    0.00000000000000            12
    0.42857142857143    0.14285714285714    0.00000000000000             6
    0.21428571428571    0.21428571428571    0.00000000000000             6
    0.28571428571429    0.21428571428571    0.00000000000000            12
    0.35714285714286    0.21428571428571    0.00000000000000            12
    0.28571428571429    0.28571428571429    0.00000000000000             6
    0.35714285714286    0.28571428571429    0.00000000000000             6
    0.00000000000000    0.00000000000000    0.16666666666667             2
    0.07142857142857    0.00000000000000    0.16666666666667            12
    0.14285714285714    0.00000000000000    0.16666666666667            12
    0.21428571428571    0.00000000000000    0.16666666666667            12
    0.28571428571429    0.00000000000000    0.16666666666667            12
    0.35714285714286    0.00000000000000    0.16666666666667            12
    0.42857142857143    0.00000000000000    0.16666666666667            12
    0.50000000000000    0.00000000000000    0.16666666666667             6
    0.07142857142857    0.07142857142857    0.16666666666667            12
    0.14285714285714    0.07142857142857    0.16666666666667            24
    0.21428571428571    0.07142857142857    0.16666666666667            24
    0.28571428571429    0.07142857142857    0.16666666666667            24
    0.35714285714286    0.07142857142857    0.16666666666667            24
    0.42857142857143    0.07142857142857    0.16666666666667            24
    0.14285714285714    0.14285714285714    0.16666666666667            12
    0.21428571428571    0.14285714285714    0.16666666666667            24
    0.28571428571429    0.14285714285714    0.16666666666667            24
    0.35714285714286    0.14285714285714    0.16666666666667            24
    0.42857142857143    0.14285714285714    0.16666666666667            12
    0.21428571428571    0.21428571428571    0.16666666666667            12
    0.28571428571429    0.21428571428571    0.16666666666667            24
    0.35714285714286    0.21428571428571    0.16666666666667            24
    0.28571428571429    0.28571428571429    0.16666666666667            12
    0.35714285714286    0.28571428571429    0.16666666666667            12
    0.00000000000000    0.00000000000000    0.33333333333333             2
    0.07142857142857    0.00000000000000    0.33333333333333            12
    0.14285714285714    0.00000000000000    0.33333333333333            12
    0.21428571428571    0.00000000000000    0.33333333333333            12
    0.28571428571429    0.00000000000000    0.33333333333333            12
    0.35714285714286    0.00000000000000    0.33333333333333            12
    0.42857142857143    0.00000000000000    0.33333333333333            12
    0.50000000000000    0.00000000000000    0.33333333333333             6
    0.07142857142857    0.07142857142857    0.33333333333333            12
    0.14285714285714    0.07142857142857    0.33333333333333            24
    0.21428571428571    0.07142857142857    0.33333333333333            24
    0.28571428571429    0.07142857142857    0.33333333333333            24
    0.35714285714286    0.07142857142857    0.33333333333333            24
    0.42857142857143    0.07142857142857    0.33333333333333            24
    0.14285714285714    0.14285714285714    0.33333333333333            12
    0.21428571428571    0.14285714285714    0.33333333333333            24
    0.28571428571429    0.14285714285714    0.33333333333333            24
    0.35714285714286    0.14285714285714    0.33333333333333            24
    0.42857142857143    0.14285714285714    0.33333333333333            12
    0.21428571428571    0.21428571428571    0.33333333333333            12
    0.28571428571429    0.21428571428571    0.33333333333333            24
    0.35714285714286    0.21428571428571    0.33333333333333            24
    0.28571428571429    0.28571428571429    0.33333333333333            12
    0.35714285714286    0.28571428571429    0.33333333333333            12
    0.00000000000000    0.00000000000000    0.50000000000000             1
    0.07142857142857    0.00000000000000    0.50000000000000             6
    0.14285714285714    0.00000000000000    0.50000000000000             6
    0.21428571428571    0.00000000000000    0.50000000000000             6
    0.28571428571429    0.00000000000000    0.50000000000000             6
    0.35714285714286    0.00000000000000    0.50000000000000             6
    0.42857142857143    0.00000000000000    0.50000000000000             6
    0.50000000000000    0.00000000000000    0.50000000000000             3
    0.07142857142857    0.07142857142857    0.50000000000000             6
    0.14285714285714    0.07142857142857    0.50000000000000            12
    0.21428571428571    0.07142857142857    0.50000000000000            12
    0.28571428571429    0.07142857142857    0.50000000000000            12
    0.35714285714286    0.07142857142857    0.50000000000000            12
    0.42857142857143    0.07142857142857    0.50000000000000            12
    0.14285714285714    0.14285714285714    0.50000000000000             6
    0.21428571428571    0.14285714285714    0.50000000000000            12
    0.28571428571429    0.14285714285714    0.50000000000000            12
    0.35714285714286    0.14285714285714    0.50000000000000            12
    0.42857142857143    0.14285714285714    0.50000000000000             6
    0.21428571428571    0.21428571428571    0.50000000000000             6
    0.28571428571429    0.21428571428571    0.50000000000000            12
    0.35714285714286    0.21428571428571    0.50000000000000            12
    0.28571428571429    0.28571428571429    0.50000000000000             6
    0.35714285714286    0.28571428571429    0.50000000000000             6
Tetrahedra
      1218    0.00014172335601
         8         2         2         9        26
         8         1         2         2        26
         4         1         2        25        26
         4         2         9        26        33
         8         2        26        26        33
         8         2        25        26        26
         8         3         9        10        33
         8         2         3         9        33
         4         2         3        26        33
         4         3        10        33        34
         8         3        27        33        34
         8         3        26        27        33
         8         4        10        11        34
         8         3         4        10        34
         4         3         4        27        34
         4         4        11        34        35
         8         4        28        34        35
         8         4        27        28        34
         8         5        11        12        35
         8         4         5        11        35
         4         4         5        28        35
         4         5        12        35        36
         8         5        29        35        36
         8         5        28        29        35
         8         6        12        13        36
         8         5         6        12        36
         4         5         6        29        36
         4         6        13        36        37
         8         6        30        36        37
         8         6        29        30        36
         8         7        13        14        37
         8         6         7        13        37
         4         6         7        30        37
         4         7        14        37        38
         8         7        31        37        38
         8         7        30        31        37
         8         8        14        14        38
         8         7         8        14        38
         4         7         8        31        38
         4         8        14        38        38
         4         8        32        38        38
         8         8        31        32        38
         8         7        13        14        38
         4         7         8        32        38
         4         7        13        37        38
         8         7        31        32        38
         8         6        12        13        37
         4         6         7        31        37
         4         6        12        36        37
         8         6        30        31        37
         8         5        11        12        36
         4         5         6        30        36
         4         5        11        35        36
         8         5        29        30        36
         8         4        10        11        35
         4         4         5        29        35
         4         4        10        34        35
         8         4        28        29        35
         8         3         9        10        34
         4         3         4        28        34
         4         3         9        33        34
         8         3        27        28        34
         4         2         2         9        33
         4         2         3        27        33
         4         2         2        26        33
         8         2        26        27        33
         4         1         2        26        26
         4         1        25        26        26
         8         3         9        10        27
         8         2         3         9        27
         4         2         9        26        27
         4         9        10        27        34
         8         9        27        33        34
         8         9        26        27        33
         8        10        10        15        34
         8         9        10        10        34
         4         9        10        33        34
         4        10        15        34        39
         8        10        34        34        39
         8        10        33        34        34
         8        11        15        16        39
         8        10        11        15        39
         4        10        11        34        39
         4        11        16        39        40
         8        11        35        39        40
         8        11        34        35        39
         8        12        16        17        40
         8        11        12        16        40
         4        11        12        35        40
         4        12        17        40        41
         8        12        36        40        41
         8        12        35        36        40
         8        13        17        18        41
         8        12        13        17        41
         4        12        13        36        41
         4        13        18        41        42
         8        13        37        41        42
         8        13        36        37        41
         8        14        18        19        42
         8        13        14        18        42
         4        13        14        37        42
         4        14        19        42        43
         8        14        38        42        43
         8        14        37        38        42
         8        14        18        19        43
         4        14        14        19        43
         4        14        14        38        43
         4        14        18        42        43
         8        14        38        38        43
         8        13        17        18        42
         4        13        14        38        42
         4        13        17        41        42
         8        13        37        38        42
         8        12        16        17        41
         4        12        13        37        41
         4        12        16        40        41
         8        12        36        37        41
         8        11        15        16        40
         4        11        12        36        40
         4        11        15        39        40
         8        11        35        36        40
         4        10        10        15        39
         4        10        11        35        39
         4        10        10        34        39
         8        10        34        35        39
         4         9        10        34        34
         4         3         9        27        34
         4         9        33        34        34
         4         2         9        27        33
         8         4        10        11        28
         8         3         4        10        28
         4         3        10        27        28
         4        10        11        28        35
         8        10        28        34        35
         8        10        27        28        34
         8        11        15        16        35
         8        10        11        15        35
         4        10        15        34        35
         4        15        16        35        40
         8        15        35        39        40
         8        15        34        35        39
         8        16        16        20        40
         8        15        16        16        40
         4        15        16        39        40
         4        16        20        40        44
         8        16        40        40        44
         8        16        39        40        40
         8        17        20        21        44
         8        16        17        20        44
         4        16        17        40        44
         4        17        21        44        45
         8        17        41        44        45
         8        17        40        41        44
         8        18        21        22        45
         8        17        18        21        45
         4        17        18        41        45
         4        18        22        45        46
         8        18        42        45        46
         8        18        41        42        45
         8        19        22        22        46
         8        18        19        22        46
         4        18        19        42        46
         4        19        22        46        46
         4        19        43        46        46
         8        19        42        43        46
         8        18        21        22        46
         4        18        19        43        46
         4        18        21        45        46
         8        18        42        43        46
         8        17        20        21        45
         4        17        18        42        45
         4        17        20        44        45
         8        17        41        42        45
         4        16        16        20        44
         4        16        17        41        44
         4        16        16        40        44
         8        16        40        41        44
         4        15        16        40        40
         4        11        15        35        40
         4        15        39        40        40
         4        10        15        35        39
         4         4        10        28        35
         4         3        10        28        34
         8         5        11        12        29
         8         4         5        11        29
         4         4        11        28        29
         4        11        12        29        36
         8        11        29        35        36
         8        11        28        29        35
         8        12        16        17        36
         8        11        12        16        36
         4        11        16        35        36
         4        16        17        36        41
         8        16        36        40        41
         8        16        35        36        40
         8        17        20        21        41
         8        16        17        20        41
         4        16        20        40        41
         4        20        21        41        45
         8        20        41        44        45
         8        20        40        41        44
         8        21        21        23        45
         8        20        21        21        45
         4        20        21        44        45
         4        21        23        45        47
         8        21        45        45        47
         8        21        44        45        45
         8        22        23        24        47
         8        21        22        23        47
         4        21        22        45        47
         4        22        24        47        48
         8        22        46        47        48
         8        22        45        46        47
         8        22        23        24        48
         4        22        22        24        48
         4        22        22        46        48
         4        22        23        47        48
         8        22        46        46        48
         4        21        21        23        47
         4        21        22        46        47
         4        21        21        45        47
         8        21        45        46        47
         4        20        21        45        45
         4        17        20        41        45
         4        20        44        45        45
         4        16        20        41        44
         4        12        16        36        41
         4        11        16        36        40
         4         5        11        29        36
         4         4        11        29        35
         8         6        12        13        30
         8         5         6        12        30
         4         5        12        29        30
         4        12        13        30        37
         8        12        30        36        37
         8        12        29        30        36
         8        13        17        18        37
         8        12        13        17        37
         4        12        17        36        37
         4        17        18        37        42
         8        17        37        41        42
         8        17        36        37        41
         8        18        21        22        42
         8        17        18        21        42
         4        17        21        41        42
         4        21        22        42        46
         8        21        42        45        46
         8        21        41        42        45
         8        22        23        24        46
         8        21        22        23        46
         4        21        23        45        46
         4        23        24        46        48
         8        23        46        47        48
         8        23        45        46        47
         4        24        24        24        48
         8        23        24        24        48
         4        23        24        47        48
         4        24        24        48        48
         4        24        48        48        48
         8        24        47        48        48
         4        23        24        48        48
         4        22        23        46        48
         4        23        47        48        48
         4        21        23        46        47
         4        18        21        42        46
         4        17        21        42        45
         4        13        17        37        42
         4        12        17        37        41
         4         6        12        30        37
         4         5        12        30        36
         8         7        13        14        31
         8         6         7        13        31
         4         6        13        30        31
         4        13        14        31        38
         8        13        31        37        38
         8        13        30        31        37
         8        14        18        19        38
         8        13        14        18        38
         4        13        18        37        38
         4        18        19        38        43
         8        18        38        42        43
         8        18        37        38        42
         4        19        22        22        43
         8        18        19        22        43
         4        18        22        42        43
         4        22        22        43        46
         8        22        43        46        46
         8        22        42        43        46
         8        22        22        24        46
         4        22        24        46        46
         4        23        24        46        47
         8        24        46        47        48
         4        24        46        46        48
         4        23        24        24        47
         4        24        24        47        48
         4        22        24        46        47
         4        22        24        46        48
         4        19        22        43        46
         4        18        22        43        46
         4        14        18        38        43
         4        13        18        38        42
         4         7        13        31        38
         4         6        13        31        37
         4         8        14        14        32
         8         7         8        14        32
         4         7        14        31        32
         4        14        14        32        38
         8        14        32        38        38
         8        14        31        32        38
         8        14        14        19        38
         4        14        19        38        38
         4        18        19        38        42
         8        19        38        42        43
         4        19        38        38        43
         8        18        19        22        42
         4        19        22        42        43
         4        21        22        42        45
         8        22        42        45        46
         8        21        22        23        45
         4        22        23        45        46
         4        21        23        45        45
         4        23        45        45        47
         4        22        23        45        47
         4        18        22        42        45
         4        19        22        42        46
         4        14        19        38        42
         4        14        19        38        43
         4         8        14        32        38
         4         7        14        32        38
         8         7         8        14        31
         4         8        14        31        32
         4        13        14        31        37
         8        14        31        37        38
         8        13        14        18        37
         4        14        18        37        38
         4        17        18        37        41
         8        18        37        41        42
         8        17        18        21        41
         4        18        21        41        42
         4        20        21        41        44
         8        21        41        44        45
         4        20        21        21        44
         4        21        21        44        45
         4        17        21        41        44
         4        18        21        41        45
         4        13        18        37        41
         4        14        18        37        42
         4         7        14        31        37
         4         8        14        31        38
         8         6         7        13        30
         4         7        13        30        31
         4        12        13        30        36
         8        13        30        36        37
         8        12        13        17        36
         4        13        17        36        37
         4        16        17        36        40
         8        17        36        40        41
         8        16        17        20        40
         4        17        20        40        41
         4        16        20        40        40
         4        20        40        40        44
         4        17        20        40        44
         4        12        17        36        40
         4        13        17        36        41
         4         6        13        30        36
         4         7        13        30        37
         8         5         6        12        29
         4         6        12        29        30
         4        11        12        29        35
         8        12        29        35        36
         8        11        12        16        35
         4        12        16        35        36
         4        15        16        35        39
         8        16        35        39        40
         4        15        16        16        39
         4        16        16        39        40
         4        11        16        35        39
         4        12        16        35        40
         4         5        12        29        35
         4         6        12        29        36
         8         4         5        11        28
         4         5        11        28        29
         4        10        11        28        34
         8        11        28        34        35
         8        10        11        15        34
         4        11        15        34        35
         4        10        15        34        34
         4        15        34        34        39
         4        11        15        34        39
         4         4        11        28        34
         4         5        11        28        35
         8         3         4        10        27
         4         4        10        27        28
         4         9        10        27        33
         8        10        27        33        34
         4         9        10        10        33
         4        10        10        33        34
         4         3        10        27        33
         4         4        10        27        34
         8         2         3         9        26
         4         3         9        26        27
         4         2         9        26        26
         4         9        26        26        33
         4         3         9        26        33
         4         1         2         2        25
         4         2         2        25        26
         8        26        26        33        50
         8        25        26        26        50
         4        25        26        49        50
         4        26        33        50        57
         8        26        50        50        57
         8        26        49        50        50
         8        27        33        34        57
         8        26        27        33        57
         4        26        27        50        57
         4        27        34        57        58
         8        27        51        57        58
         8        27        50        51        57
         8        28        34        35        58
         8        27        28        34        58
         4        27        28        51        58
         4        28        35        58        59
         8        28        52        58        59
         8        28        51        52        58
         8        29        35        36        59
         8        28        29        35        59
         4        28        29        52        59
         4        29        36        59        60
         8        29        53        59        60
         8        29        52        53        59
         8        30        36        37        60
         8        29        30        36        60
         4        29        30        53        60
         4        30        37        60        61
         8        30        54        60        61
         8        30        53        54        60
         8        31        37        38        61
         8        30        31        37        61
         4        30        31        54        61
         4        31        38        61        62
         8        31        55        61        62
         8        31        54        55        61
         8        32        38        38        62
         8        31        32        38        62
         4        31        32        55        62