       N       E                     dE             d eps       ncg     rms          rms(c)
DAV:   1    -0.518866739576E+02   -0.51887E+02   -0.78621E+03  6384   0.809E+02
DAV:   2    -0.106304937761E+03   -0.54418E+02   -0.50690E+02  9088   0.186E+02
DAV:   3    -0.108130187385E+03   -0.18252E+01   -0.18210E+01  6416   0.305E+01
DAV:   4    -0.108140763793E+03   -0.10576E-01   -0.10576E-01  7464   0.293E+00
DAV:   5    -0.108140848355E+03   -0.84562E-04   -0.84562E-04  6408   0.231E-01    0.391E+01
DAV:   6    -0.562283097356E+02    0.51913E+02   -0.25599E+01  6376   0.308E+01    0.215E+01
DAV:   7    -0.360840950693E+02    0.20144E+02   -0.38012E+01  7488   0.370E+01    0.320E+00
DAV:   8    -0.362124767419E+02   -0.12838E+00   -0.12113E+00  6720   0.687E+00    0.140E+00
DAV:   9    -0.362620719929E+02   -0.49595E-01   -0.11022E-01  6888   0.331E+00    0.301E-01
DAV:  10    -0.362748246546E+02   -0.12753E-01   -0.16505E-02  6848   0.131E+00    0.938E-02
DAV:  11    -0.362756522202E+02   -0.82757E-03   -0.65257E-04  7600   0.276E-01    0.503E-02
DAV:  12    -0.362760333245E+02   -0.38110E-03   -0.19808E-04  6840   0.143E-01    0.103E-02
DAV:  13    -0.362760498689E+02   -0.16544E-04   -0.12283E-05  8000   0.332E-02    0.478E-03
DAV:  14    -0.362760510306E+02   -0.11617E-05   -0.97384E-07  5496   0.103E-02    0.321E-03
DAV:  15    -0.362760517395E+02   -0.70893E-06   -0.64322E-07  4560   0.678E-03
   1 F= -.29138827E+02 E0= -.29138827E+02  d E =-.291388E+02  mag=     0.0000
       N       E                     dE             d eps       ncg     rms          rms(c)
DAV:   1    -0.362793045410E+02   -0.32535E-02   -0.34603E-02  7472   0.145E+00    0.147E-01
DAV:   2    -0.362789062623E+02    0.39828E-03   -0.60435E-04  6936   0.160E-01    0.798E-02
DAV:   3    -0.362787308630E+02    0.17540E-03   -0.26367E-04  7344   0.101E-01    0.495E-03
DAV:   4    -0.362787305160E+02    0.34699E-06   -0.28650E-06  6864   0.123E-02
   2 F= -.29201263E+02 E0= -.29201263E+02  d E =-.624367E-01  mag=     0.0000
       N       E                     dE             d eps       ncg     rms          rms(c)
DAV:   1    -0.362629611319E+02    0.15770E-01   -0.31551E-01  7496   0.443E+00    0.444E-01
DAV:   2    -0.362593653765E+02    0.35958E-02   -0.56885E-03  6904   0.492E-01    0.241E-01
DAV:   3    -0.362577683313E+02    0.15970E-02   -0.23330E-03  7448   0.304E-01    0.154E-02
DAV:   4    -0.362577617778E+02    0.65535E-05   -0.25977E-05  6856   0.373E-02    0.605E-03
DAV:   5    -0.362577610147E+02    0.76307E-06   -0.12417E-06  5584   0.984E-03
   3 F= -.29357565E+02 E0= -.29357565E+02  d E =-.218738E+00  mag=    -0.0000
       N       E                     dE             d eps       ncg     rms          rms(c)
DAV:   1    -0.360973844872E+02    0.16038E+00   -0.12963E+00  7584   0.916E+00    0.901E-01
DAV:   2    -0.360829522293E+02    0.14432E-01   -0.24254E-02  6912   0.102E+00    0.488E-01
DAV:   3    -0.360765015808E+02    0.64506E-02   -0.90664E-03  7576   0.610E-01    0.330E-02
DAV:   4    -0.360764701039E+02    0.31477E-04   -0.10556E-04  6752   0.765E-02    0.126E-02
DAV:   5    -0.360764646004E+02    0.55035E-05   -0.60130E-06  7544   0.208E-02    0.132E-03
DAV:   6    -0.360764645236E+02    0.76861E-07   -0.14547E-07  3912   0.290E-03
   4 F= -.29521880E+02 E0= -.29521880E+02  d E =-.383053E+00  mag=     0.0000
       N       E                     dE             d eps       ncg     rms          rms(c)
DAV:   1    -0.359897173672E+02    0.86747E-01   -0.10623E-01  7744   0.264E+00    0.256E-01
DAV:   2    -0.359885319866E+02    0.11854E-02   -0.18030E-03  6896   0.286E-01    0.139E-01
DAV:   3    -0.359880071585E+02    0.52483E-03   -0.74214E-04  7584   0.176E-01    0.903E-03
DAV:   4    -0.359880057005E+02    0.14581E-05   -0.87524E-06  6832   0.220E-02    0.359E-03
DAV:   5    -0.359880058898E+02   -0.18936E-06   -0.38581E-07  4384   0.564E-03
   5 F= -.29530090E+02 E0= -.29530090E+02  d E =-.391263E+00  mag=    -0.0000
       N       E                     dE             d eps       ncg     rms          rms(c)
DAV:   1    -0.359879799347E+02    0.25766E-04   -0.29145E-03  6384   0.394E-01    0.745E-03
DAV:   2    -0.359879815773E+02   -0.16426E-05   -0.23807E-05  8240   0.354E-02    0.521E-03
DAV:   3    -0.359879812565E+02    0.32082E-06   -0.76499E-07  5128   0.816E-03
   6 F= -.29530341E+02 E0= -.29530341E+02  d E =-.250634E-03  mag=     0.0000
       N       E                     dE             d eps       ncg     rms          rms(c)
DAV:   1    -0.359876778361E+02    0.30374E-03   -0.82528E-03  6400   0.663E-01    0.127E-02
DAV:   2    -0.359876826116E+02   -0.47756E-05   -0.67238E-05  8192   0.597E-02    0.889E-03
DAV:   3    -0.359876817639E+02    0.84775E-06   -0.22548E-06  6904   0.137E-02
   7 F= -.29530503E+02 E0= -.29530503E+02  d E =-.413569E-03  mag=    -0.0000
