PROCAR lm decomposed
# of k-points:   96         # of bands:   16         # of ions:    4

 k-point     1 :    0.00000000 0.00000000 0.00000000     weight = 0.00085034

band     1 # energy  -11.63820003 # occ.  1.00000000
 
ion      s     py     pz     px    dxy    dyz    dz2    dxz  x2-y2    tot
    1  0.146  0.000  0.000  0.000  0.000  0.000  0.000  0.000  0.000  0.146
    2  0.146  0.000  0.000  0.000  0.000  0.000  0.000  0.000  0.000  0.146
    3  0.146  0.000  0.000  0.000  0.000  0.000  0.000  0.000  0.000  0.146
    4  0.146  0.000  0.000  0.000  0.000  0.000  0.000  0.000  0.000  0.146
tot    0.585  0.000  0.000  0.000  0.000  0.000  0.000  0.000  0.000  0.585
 
band     2 # energy   -5.52364278 # occ.  1.00000000
 
ion      s     py     pz     px    dxy    dyz    dz2    dxz  x2-y2    tot
    1  0.154  0.000  0.017  0.000  0.000  0.000  0.000  0.000  0.000  0.171
    2  0.154  0.000  0.017  0.000  0.000  0.000  0.000  0.000  0.000  0.171
    3  0.154  0.000  0.017  0.000  0.000  0.000  0.000  0.000  0.000  0.171
    4  0.154  0.000  0.017  0.000  0.000  0.000  0.000  0.000  0.000  0.171
tot    0.615  0.000  0.068  0.000  0.000  0.000  0.000  0.000  0.000  0.684
 
band     3 # energy   -3.35746589 # occ.  1.00000000
 
ion      s     py     pz     px    dxy    dyz    dz2    dxz  x2-y2    tot
    1  0.038  0.000  0.099  0.000  0.000  0.000  0.000  0.000  0.000  0.137
    2  0.038  0.000  0.099  0.000  0.000  0.000  0.000  0.000  0.000  0.137
    3  0.038  0.000  0.099  0.000  0.000  0.000  0.000  0.000  0.000  0.137
    4  0.038  0.000  0.099  0.000  0.000  0.000  0.000  0.000  0.000  0.137
tot    0.153  0.000  0.395  0.000  0.000  0.000  0.000  0.000  0.000  0.549
 
band     4 # energy    8.11053740 # occ.  1.00000000
 
ion      s     py     pz     px    dxy    dyz    dz2    dxz  x2-y2    tot
    1  0.000  0.142  0.000  0.047  0.000  0.000  0.000  0.000  0.000  0.189
    2  0.000  0.142  0.000  0.047  0.000  0.000  0.000  0.000  0.000  0.189
    3  0.000  0.142  0.000  0.047  0.000  0.000  0.000  0.000  0.000  0.189
    4  0.000  0.142  0.000  0.047  0.000  0.000  0.000  0.000  0.000  0.189
tot    0.000  0.566  0.000  0.190  0.000  0.000  0.000  0.000  0.000  0.756
 
band     5 # energy    8.11062688 # occ.  1.00000000
 
ion      s     py     pz     px    dxy    dyz    dz2    dxz  x2-y2    tot
    1  0.000  0.047  0.000  0.142  0.000  0.000  0.000  0.000  0.000  0.189
    2  0.000  0.047  0.000  0.142  0.000  0.000  0.000  0.000  0.000  0.189
    3  0.000  0.047  0.000  0.142  0.000  0.000  0.000  0.000  0.000  0.189
    4  0.000  0.047  0.000  0.142  0.000  0.000  0.000  0.000  0.000  0.189
tot    0.000  0.190  0.000  0.566  0.000  0.000  0.000  0.000  0.000  0.756
 
band     6 # energy   10.87128734 # occ.  1.00000000
 
ion      s     py     pz     px    dxy    dyz    dz2    dxz  x2-y2    tot
    1  0.000  0.000  0.194  0.000  0.000  0.000  0.000  0.000  0.000  0.194
    2  0.000  0.000  0.194  0.000  0.000  0.000  0.000  0.000  0.000  0.194
    3  0.000  0.000  0.194  0.000  0.000  0.000  0.000  0.000  0.000  0.194
    4  0.000  0.000  0.194  0.000  0.000  0.000  0.000  0.000  0.000  0.194
tot    0.000  0.000  0.777  0.000  0.000  0.000  0.000  0.000  0.000  0.777
 
band     7 # energy   11.51733336 # occ.  1.00000000
 
ion      s     py     pz     px    dxy    dyz    dz2    dxz  x2-y2    tot
    1  0.000  0.152  0.000  0.051  0.000  0.000  0.000  0.000  0.000  0.203
    2  0.000  0.152  0.000  0.051  0.000  0.000  0.000  0.000  0.000  0.203
    3  0.000  0.152  0.000  0.051  0.000  0.000  0.000  0.000  0.000  0.203
    4  0.000  0.152  0.000  0.051  0.000  0.000  0.000  0.000  0.000  0.203
tot    0.000  0.609  0.000  0.203  0.000  0.000  0.000  0.000  0.000  0.811
 
band     8 # energy   11.51743483 # occ.  1.00000000
 
ion      s     py     pz     px    dxy    dyz    dz2    dxz  x2-y2    tot
    1  0.000  0.051  0.000  0.152  0.000  0.000  0.000  0.000  0.000  0.203
    2  0.000  0.051  0.000  0.152  0.000  0.000  0.000  0.000  0.000  0.203
    3  0.000  0.051  0.000  0.152  0.000  0.000  0.000  0.000  0.000  0.203
    4  0.000  0.051  0.000  0.152  0.000  0.000  0.000  0.000  0.000  0.203
tot    0.000  0.203  0.000  0.609  0.000  0.000  0.000  0.000  0.000  0.811
 
band     9 # energy   16.58974118 # occ.  0.00000000
 
ion      s     py     pz     px    dxy    dyz    dz2    dxz  x2-y2    tot
    1  0.000  0.034  0.000  0.109  0.000  0.000  0.000  0.000  0.000  0.143
    2  0.000  0.034  0.000  0.109  0.000  0.000  0.000  0.000  0.000  0.143
    3  0.000  0.034  0.000  0.109  0.000  0.000  0.000  0.000  0.000  0.143
    4  0.000  0.034  0.000  0.109  0.000  0.000  0.000  0.000  0.000  0.143
tot    0.000  0.138  0.000  0.434  0.000  0.000  0.000  0.000  0.000  0.572
 
band    10 # energy   16.58983680 # occ.  0.00000000
 
ion      s     py     pz     px    dxy    dyz    dz2    dxz  x2-y2    tot
    1  0.000  0.109  0.000  0.034  0.000  0.000  0.000  0.000  0.000  0.143
    2  0.000  0.109  0.000  0.034  0.000  0.000  0.000  0.000  0.000  0.143
    3  0.000  0.109  0.000  0.034  0.000  0.000  0.000  0.000  0.000  0.143
    4  0.000  0.109  0.000  0.034  0.000  0.000  0.000  0.000  0.000  0.143
tot    0.000  0.434  0.000  0.138  0.000  0.000  0.000  0.000  0.000  0.572
 
band    11 # energy   17.11638475 # occ.  0.00000000
 
ion      s     py     pz     px    dxy    dyz    dz2    dxz  x2-y2    tot
    1  0.002  0.000  0.150  0.000  0.000  0.000  0.000  0.000  0.000  0.153
    2  0.002  0.000  0.150  0.000  0.000  0.000  0.000  0.000  0.000  0.153
    3  0.002  0.000  0.150  0.000  0.000  0.000  0.000  0.000  0.000  0.153
    4  0.002  0.000  0.150  0.000  0.000  0.000  0.000  0.000  0.000  0.153
tot    0.009  0.000  0.601  0.000  0.000  0.000  0.000  0.000  0.000  0.610
 
band    12 # energy   20.77578996 # occ.  0.00000000
 
ion      s     py     pz     px    dxy    dyz    dz2    dxz  x2-y2    tot
    1  0.142  0.000  0.008  0.000  0.000  0.000  0.000  0.000  0.000  0.150
    2  0.142  0.000  0.008  0.000  0.000  0.000  0.000  0.000  0.000  0.150
    3  0.142  0.000  0.008  0.000  0.000  0.000  0.000  0.000  0.000  0.150
    4  0.142  0.000  0.008  0.000  0.000  0.000  0.000  0.000  0.000  0.150
tot    0.568  0.000  0.033  0.000  0.000  0.000  0.000  0.000  0.000  0.601
 
band    13 # energy   21.59431504 # occ.  0.00000000
 
ion      s     py     pz     px    dxy    dyz    dz2    dxz  x2-y2    tot
    1  0.000  0.038  0.000  0.119  0.000  0.000  0.000  0.000  0.000  0.157
    2  0.000  0.038  0.000  0.119  0.000  0.000  0.000  0.000  0.000  0.157
    3  0.000  0.038  0.000  0.119  0.000  0.000  0.000  0.000  0.000  0.157
    4  0.000  0.038  0.000  0.119  0.000  0.000  0.000  0.000  0.000  0.157
tot    0.000  0.152  0.000  0.476  0.000  0.000  0.000  0.000  0.000  0.629
 
band    14 # energy   21.59443493 # occ.  0.00000000
 
ion      s     py     pz     px    dxy    dyz    dz2    dxz  x2-y2    tot
    1  0.000  0.119  0.000  0.038  0.000  0.000  0.000  0.000  0.000  0.157
    2  0.000  0.119  0.000  0.038  0.000  0.000  0.000  0.000  0.000  0.157
    3  0.000  0.119  0.000  0.038  0.000  0.000  0.000  0.000  0.000  0.157
    4  0.000  0.119  0.000  0.038  0.000  0.000  0.000  0.000  0.000  0.157
tot    0.000  0.476  0.000  0.152  0.000  0.000  0.000  0.000  0.000  0.629
 
band    15 # energy   27.97710331 # occ.  0.00000000
 
ion      s     py     pz     px    dxy    dyz    dz2    dxz  x2-y2    tot
    1  0.212  0.000  0.004  0.000  0.000  0.000  0.000  0.000  0.000  0.215
    2  0.212  0.000  0.004  0.000  0.000  0.000  0.000  0.000  0.000  0.215
    3  0.212  0.000  0.004  0.000  0.000  0.000  0.000  0.000  0.000  0.215
    4  0.212  0.000  0.004  0.000  0.000  0.000  0.000  0.000  0.000  0.215
tot    0.847  0.000  0.015  0.000  0.000  0.000  0.000  0.000  0.000  0.861
 
band    16 # energy   30.69585854 # occ.  0.00000000
 
ion      s     py     pz     px    dxy    dyz    dz2    dxz  x2-y2    tot
    1  0.003  0.000  0.193  0.000  0.000  0.000  0.000  0.000  0.000  0.197
    2  0.003  0.000  0.193  0.000  0.000  0.000  0.000  0.000  0.000  0.197
    3  0.003  0.000  0.193  0.000  0.000  0.000  0.000  0.000  0.000  0.197
    4  0.003  0.000  0.193  0.000  0.000  0.000  0.000  0.000  0.000  0.197
tot    0.013  0.000  0.774  0.000  0.000  0.000  0.000  0.000  0.000  0.787
 

 k-point     2 :    0.07142857 0.00000000 0.00000000     weight = 0.00510204

band     1 # energy  -11.50318759 # occ.  1.00000000
 
ion      s     py     pz     px    dxy    dyz    dz2    dxz  x2-y2    tot
    1  0.145  0.000  0.000  0.001  0.000  0.000  0.000  0.000  0.000  0.146
    2  0.145  0.000  0.000  0.001  0.000  0.000  0.000  0.000  0.000  0.146
    3  0.145  0.000  0.000  0.001  0.000  0.000  0.000  0.000  0.000  0.146
    4  0.145  0.000  0.000  0.001  0.000  0.000  0.000  0.000  0.000  0.146
tot    0.582  0.001  0.000  0.003  0.000  0.000  0.000  0.000  0.000  0.586
 
band     2 # energy   -5.40343627 # occ.  1.00000000
 
ion      s     py     pz     px    dxy    dyz    dz2    dxz  x2-y2    tot
    1  0.153  0.000  0.017  0.001  0.000  0.000  0.000  0.000  0.000  0.171
    2  0.153  0.000  0.017  0.001  0.000  0.000  0.000  0.000  0.000  0.171
    3  0.153  0.000  0.017  0.001  0.000  0.000  0.000  0.000  0.000  0.171
    4  0.153  0.000  0.017  0.001  0.000  0.000  0.000  0.000  0.000  0.171
tot    0.610  0.001  0.068  0.004  0.000  0.000  0.000  0.000  0.000  0.684
 
band     3 # energy   -3.22805048 # occ.  1.00000000
 
ion      s     py     pz     px    dxy    dyz    dz2    dxz  x2-y2    tot
    1  0.039  0.000  0.099  0.000  0.000  0.000  0.000  0.000  0.000  0.138
    2  0.039  0.000  0.099  0.000  0.000  0.000  0.000  0.000  0.000  0.138
    3  0.039  0.000  0.099  0.000  0.000  0.000  0.000  0.000  0.000  0.138
    4  0.039  0.000  0.099  0.000  0.000  0.000  0.000  0.000  0.000  0.138
tot    0.154  0.000  0.396  0.000  0.000  0.000  0.000  0.000  0.000  0.551
 
band     4 # energy    7.43486135 # occ.  1.00000000
 
ion      s     py     pz     px    dxy    dyz    dz2    dxz  x2-y2    tot
    1  0.008  0.044  0.000  0.132  0.000  0.000  0.000  0.000  0.000  0.185
    2  0.008  0.044  0.000  0.132  0.000  0.000  0.000  0.000  0.000  0.185
    3  0.008  0.044  0.000  0.132  0.000  0.000  0.000  0.000  0.000  0.185
    4  0.008  0.044  0.000  0.132  0.000  0.000  0.000  0.000  0.000  0.185
tot    0.032  0.177  0.001  0.530  0.000  0.000  0.000  0.000  0.000  0.740
 
band     5 # energy    7.81553501 # occ.  1.00000000
 
ion      s     py     pz     px    dxy    dyz    dz2    dxz  x2-y2    tot
    1  0.000  0.140  0.000  0.047  0.000  0.000  0.000  0.000  0.000  0.187
    2  0.000  0.140  0.000  0.047  0.000  0.000  0.000  0.000  0.000  0.187
    3  0.000  0.140  0.000  0.047  0.000  0.000  0.000  0.000  0.000  0.187
    4  0.000  0.140  0.000  0.047  0.000  0.000  0.000  0.000  0.000  0.187
tot    0.000  0.560  0.000  0.187  0.000  0.000  0.000  0.000  0.000  0.747
 
band     6 # energy   10.66270590 # occ.  1.00000000
 
ion      s     py     pz     px    dxy    dyz    dz2    dxz  x2-y2    tot
    1  0.000  0.001  0.189  0.003  0.000  0.000  0.000  0.000  0.000  0.193
    2  0.000  0.001  0.189  0.003  0.000  0.000  0.000  0.000  0.000  0.193
    3  0.000  0.001  0.189  0.003  0.000  0.000  0.000  0.000  0.000  0.193
    4  0.000  0.001  0.189  0.003  0.000  0.000  0.000  0.000  0.000  0.193
tot    0.000  0.004  0.755  0.013  0.000  0.000  0.000  0.000  0.000  0.772
 
band     7 # energy   10.93483995 # occ.  1.00000000
 
ion      s     py     pz     px    dxy    dyz    dz2    dxz  x2-y2    tot
    1  0.005  0.048  0.004  0.143  0.000  0.000  0.000  0.000  0.000  0.200
    2  0.005  0.048  0.004  0.143  0.000  0.000  0.000  0.000  0.000  0.200
    3  0.005  0.048  0.004  0.143  0.000  0.000  0.000  0.000  0.000  0.200
    4  0.005  0.048  0.004  0.143  0.000  0.000  0.000  0.000  0.000  0.200
tot    0.020  0.191  0.017  0.572  0.000  0.000  0.000  0.000  0.000  0.800
 
band     8 # energy   11.25528608 # occ.  1.00000000
 
ion      s     py     pz     px    dxy    dyz    dz2    dxz  x2-y2    tot
    1  0.000  0.151  0.000  0.050  0.000  0.000  0.000  0.000  0.000  0.201
    2  0.000  0.151  0.000  0.050  0.000  0.000  0.000  0.000  0.000  0.201
    3  0.000  0.151  0.000  0.050  0.000  0.000  0.000  0.000  0.000  0.201
    4  0.000  0.151  0.000  0.050  0.000  0.000  0.000  0.000  0.000  0.201
tot    0.000  0.603  0.000  0.201  0.000  0.000  0.000  0.000  0.000  0.805
 
band     9 # energy   16.69746631 # occ.  0.00000000
 
ion      s     py     pz     px    dxy    dyz    dz2    dxz  x2-y2    tot
    1  0.005  0.033  0.005  0.098  0.000  0.000  0.000  0.000  0.000  0.141
    2  0.005  0.033  0.005  0.098  0.000  0.000  0.000  0.000  0.000  0.141
    3  0.005  0.033  0.005  0.098  0.000  0.000  0.000  0.000  0.000  0.141
    4  0.005  0.033  0.005  0.098  0.000  0.000  0.000  0.000  0.000  0.141
tot    0.021  0.131  0.020  0.394  0.000  0.000  0.000  0.000  0.000  0.565
 
band    10 # energy   16.97137805 # occ.  0.00000000
 
ion      s     py     pz     px    dxy    dyz    dz2    dxz  x2-y2    tot
    1  0.000  0.109  0.000  0.036  0.000  0.000  0.000  0.000  0.000  0.146
    2  0.000  0.109  0.000  0.036  0.000  0.000  0.000  0.000  0.000  0.146
    3  0.000  0.109  0.000  0.036  0.000  0.000  0.000  0.000  0.000  0.146
    4  0.000  0.109  0.000  0.036  0.000  0.000  0.000  0.000  0.000  0.146
tot    0.000  0.438  0.000  0.146  0.000  0.000  0.000  0.000  0.000  0.583
 
band    11 # energy   17.37604096 # occ.  0.00000000
 
ion      s     py     pz     px    dxy    dyz    dz2    dxz  x2-y2    tot
    1  0.004  0.001  0.146  0.003  0.000  0.000  0.000  0.000  0.000  0.154
    2  0.004  0.001  0.146  0.003  0.000  0.000  0.000  0.000  0.000  0.154
    3  0.004  0.001  0.146  0.003  0.000  0.000  0.000  0.000  0.000  0.154
    4  0.004  0.001  0.146  0.003  0.000  0.000  0.000  0.000  0.000  0.154
tot    0.015  0.004  0.584  0.012  0.000  0.000  0.000  0.000  0.000  0.615
 
band    12 # energy   21.17478859 # occ.  0.00000000
 
ion      s     py     pz     px    dxy    dyz    dz2    dxz  x2-y2    tot
    1  0.132  0.003  0.009  0.009  0.000  0.000  0.000  0.000  0.000  0.153
    2  0.132  0.003  0.009  0.009  0.000  0.000  0.000  0.000  0.000  0.153
    3  0.132  0.003  0.009  0.009  0.000  0.000  0.000  0.000  0.000  0.153
    4  0.132  0.003  0.009  0.009  0.000  0.000  0.000  0.000  0.000  0.153
tot    0.528  0.012  0.034  0.036  0.000  0.000  0.000  0.000  0.000  0.611
 
band    13 # energy   21.73680253 # occ.  0.00000000
 
ion      s     py     pz     px    dxy    dyz    dz2    dxz  x2-y2    tot
    1  0.003  0.038  0.001  0.114  0.000  0.000  0.000  0.000  0.000  0.156
    2  0.003  0.038  0.001  0.114  0.000  0.000  0.000  0.000  0.000  0.156
    3  0.003  0.038  0.001  0.114  0.000  0.000  0.000  0.000  0.000  0.156
    4  0.003  0.038  0.001  0.114  0.000  0.000  0.000  0.000  0.000  0.156
tot    0.014  0.152  0.003  0.456  0.000  0.000  0.000  0.000  0.000  0.624
 
band    14 # energy   22.05262081 # occ.  0.00000000
 
ion      s     py     pz     px    dxy    dyz    dz2    dxz  x2-y2    tot
    1  0.000  0.120  0.000  0.040  0.000  0.000  0.000  0.000  0.000  0.160
    2  0.000  0.120  0.000  0.040  0.000  0.000  0.000  0.000  0.000  0.160
    3  0.000  0.120  0.000  0.040  0.000  0.000  0.000  0.000  0.000  0.160
    4  0.000  0.120  0.000  0.040  0.000  0.000  0.000  0.000  0.000  0.160
tot    0.000  0.481  0.000  0.160  0.000  0.000  0.000  0.000  0.000  0.641
 
band    15 # energy   28.10117961 # occ.  0.00000000
 
ion      s     py     pz     px    dxy    dyz    dz2    dxz  x2-y2    tot
    1  0.203  0.002  0.004  0.006  0.000  0.000  0.000  0.000  0.000  0.215
    2  0.203  0.002  0.004  0.006  0.000  0.000  0.000  0.000  0.000  0.215
    3  0.203  0.002  0.004  0.006  0.000  0.000  0.000  0.000  0.000  0.215
    4  0.203  0.002  0.004  0.006  0.000  0.000  0.000  0.000  0.000  0.215
tot    0.814  0.008  0.016  0.024  0.000  0.000  0.000  0.000  0.000  0.861
 
band    16 # energy   29.53263428 # occ.  0.00000000
 
ion      s     py     pz     px    dxy    dyz    dz2    dxz  x2-y2    tot
    1  0.013  0.003  0.002  0.009  0.000  0.000  0.000  0.000  0.000  0.027
    2  0.013  0.003  0.002  0.009  0.000  0.000  0.000  0.000  0.000  0.027
    3  0.013  0.003  0.002  0.009  0.000  0.000  0.000  0.000  0.000  0.027
    4  0.013  0.003  0.002  0.009  0.000  0.000  0.000  0.000  0.000  0.027
tot    0.053  0.012  0.008  0.037  0.000  0.000  0.000  0.000  0.000  0.109
 

 k-point     3 :    0.14285714 0.00000000 0.00000000     weight = 0.00510204

band     1 # energy  -11.09906482 # occ.  1.00000000
 
ion      s     py     pz     px    dxy    dyz    dz2    dxz  x2-y2    tot
    1  0.143  0.001  0.000  0.003  0.000  0.000  0.000  0.000  0.000  0.147
    2  0.143  0.001  0.000  0.003  0.000  0.000  0.000  0.000  0.000  0.147
    3  0.143  0.001  0.000  0.003  0.000  0.000  0.000  0.000  0.000  0.147
    4  0.143  0.001  0.000  0.003  0.000  0.000  0.000  0.000  0.000  0.147
tot    0.573  0.004  0.000  0.012  0.000  0.000  0.000  0.000  0.000  0.589
 
band     2 # energy   -5.04353800 # occ.  1.00000000
 
ion      s     py     pz     px    dxy    dyz    dz2    dxz  x2-y2    tot
    1  0.149  0.001  0.017  0.004  0.000  0.000  0.000  0.000  0.000  0.172
    2  0.149  0.001  0.017  0.004  0.000  0.000  0.000  0.000  0.000  0.172
    3  0.149  0.001  0.017  0.004  0.000  0.000  0.000  0.000  0.000  0.172
    4  0.149  0.001  0.017  0.004  0.000  0.000  0.000  0.000  0.000  0.172
tot    0.597  0.006  0.068  0.017  0.000  0.000  0.000  0.000  0.000  0.687
 
band     3 # energy   -2.84483368 # occ.  1.00000000
 
ion      s     py     pz     px    dxy    dyz    dz2    dxz  x2-y2    tot
    1  0.039  0.000  0.100  0.000  0.000  0.000  0.000  0.000  0.000  0.139
    2  0.039  0.000  0.100  0.000  0.000  0.000  0.000  0.000  0.000  0.139
    3  0.039  0.000  0.100  0.000  0.000  0.000  0.000  0.000  0.000  0.139
    4  0.039  0.000  0.100  0.000  0.000  0.000  0.000  0.000  0.000  0.139
tot    0.157  0.000  0.398  0.001  0.000  0.000  0.000  0.000  0.000  0.557
 
band     4 # energy    5.75679992 # occ.  1.00000000
 
ion      s     py     pz     px    dxy    dyz    dz2    dxz  x2-y2    tot
    1  0.023  0.038  0.001  0.114  0.000  0.000  0.000  0.000  0.000  0.177
    2  0.023  0.038  0.001  0.114  0.000  0.000  0.000  0.000  0.000  0.177
    3  0.023  0.038  0.001  0.114  0.000  0.000  0.000  0.000  0.000  0.177
    4  0.023  0.038  0.001  0.114  0.000  0.000  0.000  0.000  0.000  0.177
tot    0.093  0.152  0.004  0.457  0.000  0.000  0.000  0.000  0.000  0.707
 
band     5 # energy    7.10325295 # occ.  1.00000000
 
ion      s     py     pz     px    dxy    dyz    dz2    dxz  x2-y2    tot
    1  0.000  0.137  0.000  0.046  0.000  0.000  0.000  0.000  0.000  0.182
    2  0.000  0.137  0.000  0.046  0.000  0.000  0.000  0.000  0.000  0.182
    3  0.000  0.137  0.000  0.046  0.000  0.000  0.000  0.000  0.000  0.182
    4  0.000  0.137  0.000  0.046  0.000  0.000  0.000  0.000  0.000  0.182
tot    0.000  0.547  0.000  0.182  0.000  0.000  0.000  0.000  0.000  0.730
 
band     6 # energy    9.50356873 # occ.  1.00000000
 
ion      s     py     pz     px    dxy    dyz    dz2    dxz  x2-y2    tot
    1  0.016  0.042  0.010  0.126  0.000  0.000  0.000  0.000  0.000  0.194
    2  0.016  0.042  0.010  0.126  0.000  0.000  0.000  0.000  0.000  0.194
    3  0.016  0.042  0.010  0.126  0.000  0.000  0.000  0.000  0.000  0.194
    4  0.016  0.042  0.010  0.126  0.000  0.000  0.000  0.000  0.000  0.194
tot    0.065  0.168  0.038  0.505  0.000  0.000  0.000  0.000  0.000  0.777
 
band     7 # energy   10.08473288 # occ.  1.00000000
 
ion      s     py     pz     px    dxy    dyz    dz2    dxz  x2-y2    tot
    1  0.001  0.003  0.176  0.010  0.000  0.000  0.000  0.000  0.000  0.190
    2  0.001  0.003  0.176  0.010  0.000  0.000  0.000  0.000  0.000  0.190
    3  0.001  0.003  0.176  0.010  0.000  0.000  0.000  0.000  0.000  0.190
    4  0.001  0.003  0.176  0.010  0.000  0.000  0.000  0.000  0.000  0.190
tot    0.003  0.013  0.705  0.039  0.000  0.000  0.000  0.000  0.000  0.760
 
band     8 # energy   10.60846033 # occ.  1.00000000
 
ion      s     py     pz     px    dxy    dyz    dz2    dxz  x2-y2    tot
    1  0.000  0.148  0.000  0.049  0.000  0.000  0.000  0.000  0.000  0.198
    2  0.000  0.148  0.000  0.049  0.000  0.000  0.000  0.000  0.000  0.198
    3  0.000  0.148  0.000  0.049  0.000  0.000  0.000  0.000  0.000  0.198
    4  0.000  0.148  0.000  0.049  0.000  0.000  0.000  0.000  0.000  0.198
tot    0.000  0.593  0.000  0.198  0.000  0.000  0.000  0.000  0.000  0.791
 
band     9 # energy   16.79367086 # occ.  0.00000000
 
ion      s     py     pz     px    dxy    dyz    dz2    dxz  x2-y2    tot
    1  0.021  0.025  0.015  0.074  0.000  0.000  0.000  0.000  0.000  0.135
    2  0.021  0.025  0.015  0.074  0.000  0.000  0.000  0.000  0.000  0.135
    3  0.021  0.025  0.015  0.074  0.000  0.000  0.000  0.000  0.000  0.135
    4  0.021  0.025  0.015  0.074  0.000  0.000  0.000  0.000  0.000  0.135
tot    0.084  0.099  0.060  0.297  0.000  0.000  0.000  0.000  0.000  0.539
 
band    10 # energy   17.87917798 # occ.  0.00000000
 
ion      s     py     pz     px    dxy    dyz    dz2    dxz  x2-y2    tot
    1  0.000  0.113  0.000  0.038  0.000  0.000  0.000  0.000  0.000  0.151
    2  0.000  0.113  0.000  0.038  0.000  0.000  0.000  0.000  0.000  0.151
    3  0.000  0.113  0.000  0.038  0.000  0.000  0.000  0.000  0.000  0.151
    4  0.000  0.113  0.000  0.038  0.000  0.000  0.000  0.000  0.000  0.151
tot    0.000  0.453  0.000  0.151  0.000  0.000  0.000  0.000  0.000  0.604
 
band    11 # energy   17.93594726 # occ.  0.00000000
 
ion      s     py     pz     px    dxy    dyz    dz2    dxz  x2-y2    tot
    1  0.007  0.002  0.140  0.006  0.000  0.000  0.000  0.000  0.000  0.155
    2  0.007  0.002  0.140  0.006  0.000  0.000  0.000  0.000  0.000  0.155
    3  0.007  0.002  0.140  0.006  0.000  0.000  0.000  0.000  0.000  0.155
    4  0.007  0.002  0.140  0.006  0.000  0.000  0.000  0.000  0.000  0.155
tot    0.027  0.008  0.559  0.025  0.000  0.000  0.000  0.000  0.000  0.619
 
band    12 # energy   22.06282964 # occ.  0.00000000
 
ion      s     py     pz     px    dxy    dyz    dz2    dxz  x2-y2    tot
    1  0.018  0.033  0.004  0.099  0.000  0.000  0.000  0.000  0.000  0.153
    2  0.018  0.033  0.004  0.099  0.000  0.000  0.000  0.000  0.000  0.153
    3  0.018  0.033  0.004  0.099  0.000  0.000  0.000  0.000  0.000  0.153
    4  0.018  0.033  0.004  0.099  0.000  0.000  0.000  0.000  0.000  0.153
tot    0.073  0.132  0.014  0.395  0.000  0.000  0.000  0.000  0.000  0.614
 
band    13 # energy   22.14255523 # occ.  0.00000000
 
ion      s     py     pz     px    dxy    dyz    dz2    dxz  x2-y2    tot
    1  0.104  0.010  0.012  0.030  0.000  0.000  0.000  0.000  0.000  0.156
    2  0.104  0.010  0.012  0.030  0.000  0.000  0.000  0.000  0.000  0.156
    3  0.104  0.010  0.012  0.030  0.000  0.000  0.000  0.000  0.000  0.156
    4  0.104  0.010  0.012  0.030  0.000  0.000  0.000  0.000  0.000  0.156
tot    0.415  0.041  0.047  0.122  0.000  0.000  0.000  0.000  0.000  0.625
 
band    14 # energy   23.24900825 # occ.  0.00000000
 
ion      s     py     pz     px    dxy    dyz    dz2    dxz  x2-y2    tot
    1  0.000  0.126  0.000  0.042  0.000  0.000  0.000  0.000  0.000  0.168
    2  0.000  0.126  0.000  0.042  0.000  0.000  0.000  0.000  0.000  0.168
    3  0.000  0.126  0.000  0.042  0.000  0.000  0.000  0.000  0.000  0.168
    4  0.000  0.126  0.000  0.042  0.000  0.000  0.000  0.000  0.000  0.168
tot    0.000  0.504  0.000  0.168  0.000  0.000  0.000  0.000  0.000  0.672
 
band    15 # energy   27.57744060 # occ.  0.00000000
 
ion      s     py     pz     px    dxy    dyz    dz2    dxz  x2-y2    tot
    1  0.003  0.002  0.009  0.007  0.000  0.000  0.000  0.000  0.000  0.021
    2  0.003  0.002  0.009  0.007  0.000  0.000  0.000  0.000  0.000  0.021
    3  0.003  0.002  0.009  0.007  0.000  0.000  0.000  0.000  0.000  0.021
    4  0.003  0.002  0.009  0.007  0.000  0.000  0.000  0.000  0.000  0.021
tot    0.011  0.009  0.036  0.028  0.000  0.000  0.000  0.000  0.000  0.084
 
band    16 # energy   28.45767494 # occ.  0.00000000
 
ion      s     py     pz     px    dxy    dyz    dz2    dxz  x2-y2    tot
    1  0.178  0.008  0.006  0.024  0.000  0.000  0.000  0.000  0.000  0.217
    2  0.178  0.008  0.006  0.024  0.000  0.000  0.000  0.000  0.000  0.217
    3  0.178  0.008  0.006  0.024  0.000  0.000  0.000  0.000  0.000  0.217
    4  0.178  0.008  0.006  0.024  0.000  0.000  0.000  0.000  0.000  0.217
tot    0.714  0.033  0.023  0.098  0.000  0.000  0.000  0.000  0.000  0.867
 

 k-point     4 :    0.21428571 0.00000000 0.00000000     weight = 0.00510204

band     1 # energy  -10.42902550 # occ.  1.00000000
 
ion      s     py     pz     px    dxy    dyz    dz2    dxz  x2-y2    tot
    1  0.140  0.002  0.000  0.006  0.000  0.000  0.000  0.000  0.000  0.148
    2  0.140  0.002  0.000  0.006  0.000  0.000  0.000  0.000  0.000  0.148
    3  0.140  0.002  0.000  0.006  0.000  0.000  0.000  0.000  0.000  0.148
    4  0.140  0.002  0.000  0.006  0.000  0.000  0.000  0.000  0.000  0.148
tot    0.560  0.008  0.000  0.025  0.000  0.000  0.000  0.000  0.000  0.594
 
band     2 # energy   -4.44625558 # occ.  1.00000000
 
ion      s     py     pz     px    dxy    dyz    dz2    dxz  x2-y2    tot
    1  0.144  0.003  0.017  0.009  0.000  0.000  0.000  0.000  0.000  0.173
    2  0.144  0.003  0.017  0.009  0.000  0.000  0.000  0.000  0.000  0.173
    3  0.144  0.003  0.017  0.009  0.000  0.000  0.000  0.000  0.000  0.173
    4  0.144  0.003  0.017  0.009  0.000  0.000  0.000  0.000  0.000  0.173
tot    0.574  0.012  0.068  0.037  0.000  0.000  0.000  0.000  0.000  0.691
 
band     3 # energy   -2.22703023 # occ.  1.00000000
 
ion      s     py     pz     px    dxy    dyz    dz2    dxz  x2-y2    tot
    1  0.042  0.000  0.100  0.000  0.000  0.000  0.000  0.000  0.000  0.142
    2  0.042  0.000  0.100  0.000  0.000  0.000  0.000  0.000  0.000  0.142
    3  0.042  0.000  0.100  0.000  0.000  0.000  0.000  0.000  0.000  0.142
    4  0.042  0.000  0.100  0.000  0.000  0.000  0.000  0.000  0.000  0.142
tot    0.167  0.001  0.400  0.002  0.000  0.000  0.000  0.000  0.000  0.569
 
band     4 # energy    3.63405394 # occ.  1.00000000
 
ion      s     py     pz     px    dxy    dyz    dz2    dxz  x2-y2    tot
    1  0.036  0.032  0.002  0.097  0.000  0.000  0.000  0.000  0.000  0.168
    2  0.036  0.032  0.002  0.097  0.000  0.000  0.000  0.000  0.000  0.168
    3  0.036  0.032  0.002  0.097  0.000  0.000  0.000  0.000  0.000  0.168
    4  0.036  0.032  0.002  0.097  0.000  0.000  0.000  0.000  0.000  0.168
tot    0.145  0.130  0.010  0.389  0.000  0.000  0.000  0.000  0.000  0.673
 
band     5 # energy    6.26857856 # occ.  1.00000000
 
ion      s     py     pz     px    dxy    dyz    dz2    dxz  x2-y2    tot
    1  0.000  0.134  0.000  0.045  0.000  0.000  0.000  0.000  0.000  0.179
    2  0.000  0.134  0.000  0.045  0.000  0.000  0.000  0.000  0.000  0.179
    3  0.000  0.134  0.000  0.045  0.000  0.000  0.000  0.000  0.000  0.179
    4  0.000  0.134  0.000  0.045  0.000  0.000  0.000  0.000  0.000  0.179
tot    0.000  0.537  0.000  0.179  0.000  0.000  0.000  0.000  0.000  0.715
 
band     6 # energy    7.68920266 # occ.  1.00000000
 
ion      s     py     pz     px    dxy    dyz    dz2    dxz  x2-y2    tot
    1  0.031  0.037  0.012  0.110  0.000  0.000  0.000  0.000  0.000  0.190
    2  0.031  0.037  0.012  0.110  0.000  0.000  0.000  0.000  0.000  0.190
    3  0.031  0.037  0.012  0.110  0.000  0.000  0.000  0.000  0.000  0.190
    4  0.031  0.037  0.012  0.110  0.000  0.000  0.000  0.000  0.000  0.190
tot    0.124  0.146  0.049  0.439  0.000  0.000  0.000  0.000  0.000  0.759
 
band     7 # energy    9.19062079 # occ.  1.00000000
 
ion      s     py     pz     px    dxy    dyz    dz2    dxz  x2-y2    tot
    1  0.003  0.005  0.162  0.015  0.000  0.000  0.000  0.000  0.000  0.185
    2  0.003  0.005  0.162  0.015  0.000  0.000  0.000  0.000  0.000  0.185
    3  0.003  0.005  0.162  0.015  0.000  0.000  0.000  0.000  0.000  0.185
    4  0.003  0.005  0.162  0.015  0.000  0.000  0.000  0.000  0.000  0.185
tot    0.012  0.020  0.649  0.059  0.000  0.000  0.000  0.000  0.000  0.740
 
band     8 # energy    9.83483503 # occ.  1.00000000
 
ion      s     py     pz     px    dxy    dyz    dz2    dxz  x2-y2    tot
    1  0.000  0.146  0.000  0.049  0.000  0.000  0.000  0.000  0.000  0.195
    2  0.000  0.146  0.000  0.049  0.000  0.000  0.000  0.000  0.000  0.195
    3  0.000  0.146  0.000  0.049  0.000  0.000  0.000  0.000  0.000  0.195
    4  0.000  0.146  0.000  0.049  0.000  0.000  0.000  0.000  0.000  0.195
tot    0.000  0.585  0.000  0.195  0.000  0.000  0.000  0.000  0.000  0.780
 
band     9 # energy   16.73211669 # occ.  0.00000000
 
ion      s     py     pz     px    dxy    dyz    dz2    dxz  x2-y2    tot
    1  0.038  0.016  0.022  0.048  0.000  0.000  0.000  0.000  0.000  0.125
    2  0.038  0.016  0.022  0.048  0.000  0.000  0.000  0.000  0.000  0.125
    3  0.038  0.016  0.022  0.048  0.000  0.000  0.000  0.000  0.000  0.125
    4  0.038  0.016  0.022  0.048  0.000  0.000  0.000  0.000  0.000  0.125
tot    0.153  0.064  0.090  0.192  0.000  0.000  0.000  0.000  0.000  0.500
 
band    10 # energy   18.55543841 # occ.  0.00000000
 
ion      s     py     pz     px    dxy    dyz    dz2    dxz  x2-y2    tot
    1  0.008  0.003  0.134  0.008  0.000  0.000  0.000  0.000  0.000  0.153
    2  0.008  0.003  0.134  0.008  0.000  0.000  0.000  0.000  0.000  0.153
    3  0.008  0.003  0.134  0.008  0.000  0.000  0.000  0.000  0.000  0.153
    4  0.008  0.003  0.134  0.008  0.000  0.000  0.000  0.000  0.000  0.153