<?xml version="1.0" encoding="ISO-8859-1"?>
<modeling>
 <generator>
  <i name="program" type="string">vasp </i>
  <i name="version" type="string">5.4.4.18Apr17-6-g9f103f2a35  </i>
  <i name="subversion" type="string">(build Jul  5 2023 12:24:19) complex            parallel </i>
  <i name="platform" type="string">NVIDIA22.7_CrayMPICH8.1.17 </i>
  <i name="date" type="string">2023 10 16 </i>
  <i name="time" type="string">23:31:30 </i>
 </generator>
 <incar>
  <i type="string" name="PREC">accurate</i>
  <i type="int" name="ISPIN">     2</i>
  <i type="int" name="ICHARG">     0</i>
  <i type="int" name="IBRION">     2</i>
  <i name="EDIFF">      0.00000100</i>
  <i name="EDIFFG">      0.00010000</i>
  <i type="int" name="NSW">   100</i>
  <i type="int" name="ISIF">     3</i>
  <i type="int" name="ISYM">     2</i>
  <i name="SYMPREC">      0.00010000</i>
  <i name="POTIM">      0.01500000</i>
  <i type="int" name="ISMEAR">    -5</i>
  <i name="SIGMA">      0.01000000</i>
  <i type="int" name="NWRITE">     0</i>
  <i name="PSTRESS">    500.00000000</i>
  <i type="logical" name="LWAVE"> F  </i>
  <i type="logical" name="LCHARG"> F  </i>
  <i type="int" name="LORBIT">    11</i>
  <v type="int" name="KPOINT_BSE">    -1     0     0     0</v>
 </incar>
 <structure name="primitive_cell" >
  <crystal>
   <varray name="basis" >
    <v>       2.51309400       0.00000000       0.00000000 </v>
    <v>      -1.25654700       2.17640300       0.00000000 </v>
    <v>       0.00000000       0.00000000       4.18140200 </v>
   </varray>
   <i name="volume">     22.87020049 </i>
   <varray name="rec_basis" >
    <v>       0.39791588       0.22973686      -0.00000000 </v>
    <v>       0.00000000       0.45947373       0.00000000 </v>
    <v>       0.00000000      -0.00000000       0.23915424 </v>
   </varray>
  </crystal>
  <varray name="positions" >
   <v>       0.33333300      -0.33333300      -0.06277200 </v>
   <v>      -0.33333300       0.33333300       0.06277200 </v>
   <v>       0.33333300      -0.33333300      -0.43722800 </v>
   <v>      -0.33333300       0.33333300       0.43722800 </v>
  </varray>
 </structure>
 <varray name="primitive_index" >
  <v type="int" >        1 </v>
  <v type="int" >        3 </v>
  <v type="int" >        4 </v>
  <v type="int" >        2 </v>
 </varray>
 <kpoints>
  <generation param="Gamma">
   <v type="int" name="divisions">      14       14        6 </v>
   <v name="usershift">      0.00000000       0.00000000       0.00000000 </v>
   <v name="genvec1">      0.07142857       0.00000000       0.00000000 </v>
   <v name="genvec2">      0.00000000       0.07142857       0.00000000 </v>
   <v name="genvec3">      0.00000000       0.00000000       0.16666667 </v>
   <v name="shift">      0.00000000       0.00000000       0.00000000 </v>
  </generation>
  <varray name="kpointlist" >
   <v>       0.00000000       0.00000000       0.00000000 </v>
   <v>       0.07142857       0.00000000       0.00000000 </v>
   <v>       0.14285714       0.00000000       0.00000000 </v>
   <v>       0.21428571       0.00000000       0.00000000 </v>
   <v>       0.28571429       0.00000000       0.00000000 </v>
   <v>       0.35714286       0.00000000       0.00000000 </v>
   <v>       0.42857143       0.00000000       0.00000000 </v>
   <v>       0.50000000       0.00000000       0.00000000 </v>
   <v>       0.07142857       0.07142857       0.00000000 </v>
   <v>       0.14285714       0.07142857       0.00000000 </v>
   <v>       0.21428571       0.07142857       0.00000000 </v>
   <v>       0.28571429       0.07142857       0.00000000 </v>
   <v>       0.35714286       0.07142857       0.00000000 </v>
   <v>       0.42857143       0.07142857       0.00000000 </v>
   <v>       0.14285714       0.14285714       0.00000000 </v>
   <v>       0.21428571       0.14285714       0.00000000 </v>
   <v>       0.28571429       0.14285714       0.00000000 </v>
   <v>       0.35714286       0.14285714       0.00000000 </v>
   <v>       0.42857143       0.14285714       0.00000000 </v>
   <v>       0.21428571       0.21428571       0.00000000 </v>
   <v>       0.28571429       0.21428571       0.00000000 </v>
   <v>       0.35714286       0.21428571       0.00000000 </v>
   <v>       0.28571429       0.28571429       0.00000000 </v>
   <v>       0.35714286       0.28571429       0.00000000 </v>
   <v>       0.00000000       0.00000000       0.16666667 </v>
   <v>       0.07142857       0.00000000       0.16666667 </v>
   <v>       0.14285714       0.00000000       0.16666667 </v>
   <v>       0.21428571       0.00000000       0.16666667 </v>
   <v>       0.28571429       0.00000000       0.16666667 </v>
   <v>       0.35714286       0.00000000       0.16666667 </v>
   <v>       0.42857143       0.00000000       0.16666667 </v>
   <v>       0.50000000       0.00000000       0.16666667 </v>
   <v>       0.07142857       0.07142857       0.16666667 </v>
   <v>       0.14285714       0.07142857       0.16666667 </v>
   <v>       0.21428571       0.07142857       0.16666667 </v>
   <v>       0.28571429       0.07142857       0.16666667 </v>
   <v>       0.35714286       0.07142857       0.16666667 </v>
   <v>       0.42857143       0.07142857       0.16666667 </v>
   <v>       0.14285714       0.14285714       0.16666667 </v>
   <v>       0.21428571       0.14285714       0.16666667 </v>
   <v>       0.28571429       0.14285714       0.16666667 </v>
   <v>       0.35714286       0.14285714       0.16666667 </v>
   <v>       0.42857143       0.14285714       0.16666667 </v>
   <v>       0.21428571       0.21428571       0.16666667 </v>
   <v>       0.28571429       0.21428571       0.16666667 </v>
   <v>       0.35714286       0.21428571       0.16666667 </v>
   <v>       0.28571429       0.28571429       0.16666667 </v>
   <v>       0.35714286       0.28571429       0.16666667 </v>
   <v>       0.00000000       0.00000000       0.33333333 </v>
   <v>       0.07142857       0.00000000       0.33333333 </v>
   <v>       0.14285714       0.00000000       0.33333333 </v>
   <v>       0.21428571       0.00000000       0.33333333 </v>
   <v>       0.28571429       0.00000000       0.33333333 </v>
   <v>       0.35714286       0.00000000       0.33333333 </v>
   <v>       0.42857143       0.00000000       0.33333333 </v>
   <v>       0.50000000       0.00000000       0.33333333 </v>
   <v>       0.07142857       0.07142857       0.33333333 </v>
   <v>       0.14285714       0.07142857       0.33333333 </v>
   <v>       0.21428571       0.07142857       0.33333333 </v>
   <v>       0.28571429       0.07142857       0.33333333 </v>
   <v>       0.35714286       0.07142857       0.33333333 </v>
   <v>       0.42857143       0.07142857       0.33333333 </v>
   <v>       0.14285714       0.14285714       0.33333333 </v>
   <v>       0.21428571       0.14285714       0.33333333 </v>
   <v>       0.28571429       0.14285714       0.33333333 </v>
   <v>       0.35714286       0.14285714       0.33333333 </v>
   <v>       0.42857143       0.14285714       0.33333333 </v>
   <v>       0.21428571       0.21428571       0.33333333 </v>
   <v>       0.28571429       0.21428571       0.33333333 </v>
   <v>       0.35714286       0.21428571       0.33333333 </v>
   <v>       0.28571429       0.28571429       0.33333333 </v>
   <v>       0.35714286       0.28571429       0.33333333 </v>
   <v>       0.00000000       0.00000000       0.50000000 </v>
   <v>       0.07142857       0.00000000       0.50000000 </v>
   <v>       0.14285714       0.00000000       0.50000000 </v>
   <v>       0.21428571       0.00000000       0.50000000 </v>
   <v>       0.28571429       0.00000000       0.50000000 </v>
   <v>       0.35714286       0.00000000       0.50000000 </v>
   <v>       0.42857143       0.00000000       0.50000000 </v>
   <v>       0.50000000       0.00000000       0.50000000 </v>
   <v>       0.07142857       0.07142857       0.50000000 </v>
   <v>       0.14285714       0.07142857       0.50000000 </v>
   <v>       0.21428571       0.07142857       0.50000000 </v>
   <v>       0.28571429       0.07142857       0.50000000 </v>
   <v>       0.35714286       0.07142857       0.50000000 </v>
   <v>       0.42857143       0.07142857       0.50000000 </v>
   <v>       0.14285714       0.14285714       0.50000000 </v>
   <v>       0.21428571       0.14285714       0.50000000 </v>
   <v>       0.28571429       0.14285714       0.50000000 </v>
   <v>       0.35714286       0.14285714       0.50000000 </v>
   <v>       0.42857143       0.14285714       0.50000000 </v>
   <v>       0.21428571       0.21428571       0.50000000 </v>
   <v>       0.28571429       0.21428571       0.50000000 </v>
   <v>       0.35714286       0.21428571       0.50000000 </v>
   <v>       0.28571429       0.28571429       0.50000000 </v>
   <v>       0.35714286       0.28571429       0.50000000 </v>
  </varray>
  <varray name="weights" >
   <v>       0.00085034 </v>
   <v>       0.00510204 </v>
   <v>       0.00510204 </v>
   <v>       0.00510204 </v>
   <v>       0.00510204 </v>
   <v>       0.00510204 </v>
   <v>       0.00510204 </v>
   <v>       0.00255102 </v>
   <v>       0.00510204 </v>
   <v>       0.01020408 </v>
   <v>       0.01020408 </v>
   <v>       0.01020408 </v>
   <v>       0.01020408 </v>
   <v>       0.01020408 </v>
   <v>       0.00510204 </v>
   <v>       0.01020408 </v>
   <v>       0.01020408 </v>
   <v>       0.01020408 </v>
   <v>       0.00510204 </v>
   <v>       0.00510204 </v>
   <v>       0.01020408 </v>
   <v>       0.01020408 </v>
   <v>       0.00510204 </v>
   <v>       0.00510204 </v>
   <v>       0.00170068 </v>
   <v>       0.01020408 </v>
   <v>       0.01020408 </v>
   <v>       0.01020408 </v>
   <v>       0.01020408 </v>
   <v>       0.01020408 </v>
   <v>       0.01020408 </v>
   <v>       0.00510204 </v>
   <v>       0.01020408 </v>
   <v>       0.02040816 </v>
   <v>       0.02040816 </v>
   <v>       0.02040816 </v>
   <v>       0.02040816 </v>
   <v>       0.02040816 </v>
   <v>       0.01020408 </v>
   <v>       0.02040816 </v>
   <v>       0.02040816 </v>
   <v>       0.02040816 </v>
   <v>       0.01020408 </v>
   <v>       0.01020408 </v>
   <v>       0.02040816 </v>
   <v>       0.02040816 </v>
   <v>       0.01020408 </v>
   <v>       0.01020408 </v>
   <v>       0.00170068 </v>
   <v>       0.01020408 </v>
   <v>       0.01020408 </v>
   <v>       0.01020408 </v>
   <v>       0.01020408 </v>
   <v>       0.01020408 </v>
   <v>       0.01020408 </v>
   <v>       0.00510204 </v>
   <v>       0.01020408 </v>
   <v>       0.02040816 </v>
   <v>       0.02040816 </v>
   <v>       0.02040816 </v>
   <v>       0.02040816 </v>
   <v>       0.02040816 </v>
   <v>       0.01020408 </v>
   <v>       0.02040816 </v>
   <v>       0.02040816 </v>
   <v>       0.02040816 </v>
   <v>       0.01020408 </v>
   <v>       0.01020408 </v>
   <v>       0.02040816 </v>
   <v>       0.02040816 </v>
   <v>       0.01020408 </v>
   <v>       0.01020408 </v>
   <v>       0.00085034 </v>
   <v>       0.00510204 </v>
   <v>       0.00510204 </v>
   <v>       0.00510204 </v>
   <v>       0.00510204 </v>
   <v>       0.00510204 </v>
   <v>       0.00510204 </v>
   <v>       0.00255102 </v>
   <v>       0.00510204 </v>
   <v>       0.01020408 </v>
   <v>       0.01020408 </v>
   <v>       0.01020408 </v>
   <v>       0.01020408 </v>
   <v>       0.01020408 </v>
   <v>       0.00510204 </v>
   <v>       0.01020408 </v>
   <v>       0.01020408 </v>
   <v>       0.01020408 </v>
   <v>       0.00510204 </v>
   <v>       0.00510204 </v>
   <v>       0.01020408 </v>
   <v>       0.01020408 </v>
   <v>       0.00510204 </v>
   <v>       0.00510204 </v>
  </varray>
  <varray name="tetrahedronlist"  type="int" >
   <v type="int" >        8        2        2        9       26 </v>
   <v type="int" >        8        1        2        2       26 </v>
   <v type="int" >        4        1        2       25       26 </v>
   <v type="int" >        4        2        9       26       33 </v>
   <v type="int" >        8        2       26       26       33 </v>
   <v type="int" >        8        2       25       26       26 </v>
   <v type="int" >        8        3        9       10       33 </v>
   <v type="int" >        8        2        3        9       33 </v>
   <v type="int" >        4        2        3       26       33 </v>
   <v type="int" >        4        3       10       33       34 </v>
   <v type="int" >        8        3       27       33       34 </v>
   <v type="int" >        8        3       26       27       33 </v>
   <v type="int" >        8        4       10       11       34 </v>
   <v type="int" >        8        3        4       10       34 </v>
   <v type="int" >        4        3        4       27       34 </v>
   <v type="int" >        4        4       11       34       35 </v>
   <v type="int" >        8        4       28       34       35 </v>
   <v type="int" >        8        4       27       28       34 </v>
   <v type="int" >        8        5       11       12       35 </v>
   <v type="int" >        8        4        5       11       35 </v>
   <v type="int" >        4        4        5       28       35 </v>
   <v type="int" >        4        5       12       35       36 </v>
   <v type="int" >        8        5       29       35       36 </v>
   <v type="int" >        8        5       28       29       35 </v>
   <v type="int" >        8        6       12       13       36 </v>
   <v type="int" >        8        5        6       12       36 </v>
   <v type="int" >        4        5        6       29       36 </v>
   <v type="int" >        4        6       13       36       37 </v>
   <v type="int" >        8        6       30       36       37 </v>
   <v type="int" >        8        6       29       30       36 </v>
   <v type="int" >        8        7       13       14       37 </v>
   <v type="int" >        8        6        7       13       37 </v>
   <v type="int" >        4        6        7       30       37 </v>
   <v type="int" >        4        7       14       37       38 </v>
   <v type="int" >        8        7       31       37       38 </v>
   <v type="int" >        8        7       30       31       37 </v>
   <v type="int" >        8        8       14       14       38 </v>
   <v type="int" >        8        7        8       14       38 </v>
   <v type="int" >        4        7        8       31       38 </v>
   <v type="int" >        4        8       14       38       38 </v>
   <v type="int" >        4        8       32       38       38 </v>
   <v type="int" >        8        8       31       32       38 </v>
   <v type="int" >        8        7       13       14       38 </v>
   <v type="int" >        4        7        8       32       38 </v>
   <v type="int" >        4        7       13       37       38 </v>
   <v type="int" >        8        7       31       32       38 </v>
   <v type="int" >        8        6       12       13       37 </v>
   <v type="int" >        4        6        7       31       37 </v>
   <v type="int" >        4        6       12       36       37 </v>
   <v type="int" >        8        6       30       31       37 </v>
   <v type="int" >        8        5       11       12       36 </v>
   <v type="int" >        4        5        6       30       36 </v>
   <v type="int" >        4        5       11       35       36 </v>
   <v type="int" >        8        5       29       30       36 </v>
   <v type="int" >        8        4       10       11       35 </v>
   <v type="int" >        4        4        5       29       35 </v>
   <v type="int" >        4        4       10       34       35 </v>
   <v type="int" >        8        4       28       29       35 </v>
   <v type="int" >        8        3        9       10       34 </v>
   <v type="int" >        4        3        4       28       34 </v>
   <v type="int" >        4        3        9       33       34 </v>
   <v type="int" >        8        3       27       28       34 </v>
   <v type="int" >        4        2        2        9       33 </v>
   <v type="int" >        4        2        3       27       33 </v>
   <v type="int" >        4        2        2       26       33 </v>
   <v type="int" >        8        2       26       27       33 </v>
   <v type="int" >        4        1        2       26       26 </v>
   <v type="int" >        4        1       25       26       26 </v>
   <v type="int" >        8        3        9       10       27 </v>
   <v type="int" >        8        2        3        9       27 </v>
   <v type="int" >        4        2        9       26       27 </v>
   <v type="int" >        4        9       10       27       34 </v>
   <v type="int" >        8        9       27       33       34 </v>
   <v type="int" >        8        9       26       27       33 </v>
   <v type="int" >        8       10       10       15       34 </v>
   <v type="int" >        8        9       10       10       34 </v>
   <v type="int" >        4        9       10       33       34 </v>
   <v type="int" >        4       10       15       34       39 </v>
   <v type="int" >        8       10       34       34       39 </v>
   <v type="int" >        8       10       33       34       34 </v>
   <v type="int" >        8       11       15       16       39 </v>
   <v type="int" >        8       10       11       15       39 </v>
   <v type="int" >        4       10       11       34       39 </v>
   <v type="int" >        4       11       16       39       40 </v>
   <v type="int" >        8       11       35       39       40 </v>
   <v type="int" >        8       11       34       35       39 </v>
   <v type="int" >        8       12       16       17       40 </v>
   <v type="int" >        8       11       12       16       40 </v>
   <v type="int" >        4       11       12       35       40 </v>
   <v type="int" >        4       12       17       40       41 </v>
   <v type="int" >        8       12       36       40       41 </v>
   <v type="int" >        8       12       35       36       40 </v>
   <v type="int" >        8       13       17       18       41 </v>
   <v type="int" >        8       12       13       17       41 </v>
   <v type="int" >        4       12       13       36       41 </v>
   <v type="int" >        4       13       18       41       42 </v>
   <v type="int" >        8       13       37       41       42 </v>
   <v type="int" >        8       13       36       37       41 </v>
   <v type="int" >        8       14       18       19       42 </v>
   <v type="int" >        8       13       14       18       42 </v>
   <v type="int" >        4       13       14       37       42 </v>
   <v type="int" >        4       14       19       42       43 </v>
   <v type="int" >        8       14       38       42       43 </v>
   <v type="int" >        8       14       37       38       42 </v>
   <v type="int" >        8       14       18       19       43 </v>
   <v type="int" >        4       14       14       19       43 </v>
   <v type="int" >        4       14       14       38       43 </v>
   <v type="int" >        4       14       18       42       43 </v>
   <v type="int" >        8       14       38       38       43 </v>
   <v type="int" >        8       13       17       18       42 </v>
   <v type="int" >        4       13       14       38       42 </v>
   <v type="int" >        4       13       17       41       42 </v>
   <v type="int" >        8       13       37       38       42 </v>
   <v type="int" >        8       12       16       17       41 </v>
   <v type="int" >        4       12       13       37       41 </v>
   <v type="int" >        4       12       16       40       41 </v>
   <v type="int" >        8       12       36       37       41 </v>
   <v type="int" >        8       11       15       16       40 </v>
   <v type="int" >        4       11       12       36       40 </v>
   <v type="int" >        4       11       15       39       40 </v>
   <v type="int" >        8       11       35       36       40 </v>
   <v type="int" >        4       10       10       15       39 </v>
   <v type="int" >        4       10       11       35       39 </v>
   <v type="int" >        4       10       10       34       39 </v>
   <v type="int" >        8       10       34       35       39 </v>
   <v type="int" >        4        9       10       34       34 </v>
   <v type="int" >        4        3        9       27       34 </v>
   <v type="int" >        4        9       33       34       34 </v>
   <v type="int" >        4        2        9       27       33 </v>
   <v type="int" >        8        4       10       11       28 </v>
   <v type="int" >        8        3        4       10       28 </v>
   <v type="int" >        4        3       10       27       28 </v>
   <v type="int" >        4       10       11       28       35 </v>
   <v type="int" >        8       10       28       34       35 </v>
   <v type="int" >        8       10       27       28       34 </v>
   <v type="int" >        8       11       15       16       35 </v>
   <v type="int" >        8       10       11       15       35 </v>
   <v type="int" >        4       10       15       34       35 </v>
   <v type="int" >        4       15       16       35       40 </v>
   <v type="int" >        8       15       35       39       40 </v>
   <v type="int" >        8       15       34       35       39 </v>
   <v type="int" >        8       16       16       20       40 </v>
   <v type="int" >        8       15       16       16       40 </v>
   <v type="int" >        4       15       16       39       40 </v>
   <v type="int" >        4       16       20       40       44 </v>
   <v type="int" >        8       16       40       40       44 </v>
   <v type="int" >        8       16       39       40       40 </v>
   <v type="int" >        8       17       20       21       44 </v>
   <v type="int" >        8       16       17       20       44 </v>
   <v type="int" >        4       16       17       40       44 </v>
   <v type="int" >        4       17       21       44       45 </v>
   <v type="int" >        8       17       41       44       45 </v>
   <v type="int" >        8       17       40       41       44 </v>
   <v type="int" >        8       18       21       22       45 </v>
   <v type="int" >        8       17       18       21       45 </v>
   <v type="int" >        4       17       18       41       45 </v>
   <v type="int" >        4       18       22       45       46 </v>
   <v type="int" >        8       18       42       45       46 </v>
   <v type="int" >        8       18       41       42       45 </v>
   <v type="int" >        8       19       22       22       46 </v>
   <v type="int" >        8       18       19       22       46 </v>
   <v type="int" >        4       18       19       42       46 </v>
   <v type="int" >        4       19       22       46       46 </v>
   <v type="int" >        4       19       43       46       46 </v>
   <v type="int" >        8       19       42       43       46 </v>
   <v type="int" >        8       18       21       22       46 </v>
   <v type="int" >        4       18       19       43       46 </v>
   <v type="int" >        4       18       21       45       46 </v>
   <v type="int" >        8       18       42       43       46 </v>
   <v type="int" >        8       17       20       21       45 </v>
   <v type="int" >        4       17       18       42       45 </v>
   <v type="int" >        4       17       20       44       45 </v>
   <v type="int" >        8       17       41       42       45 </v>
   <v type="int" >        4       16       16       20       44 </v>
   <v type="int" >        4       16       17       41       44 </v>
   <v type="int" >        4       16       16       40       44 </v>
   <v type="int" >        8       16       40       41       44 </v>
   <v type="int" >        4       15       16       40       40 </v>
   <v type="int" >        4       11       15       35       40 </v>
   <v type="int" >        4       15       39       40       40 </v>
   <v type="int" >        4       10       15       35       39 </v>
   <v type="int" >        4        4       10       28       35 </v>
   <v type="int" >        4        3       10       28       34 </v>
   <v type="int" >        8        5       11       12       29 </v>
   <v type="int" >        8        4        5       11       29 </v>
   <v type="int" >        4        4       11       28       29 </v>
   <v type="int" >        4       11       12       29       36 </v>
   <v type="int" >        8       11       29       35       36 </v>
   <v type="int" >        8       11       28       29       35 </v>
   <v type="int" >        8       12       16       17       36 </v>
   <v type="int" >        8       11       12       16       36 </v>
   <v type="int" >        4       11       16       35       36 </v>
   <v type="int" >        4       16       17       36       41 </v>
   <v type="int" >        8       16       36       40       41 </v>
   <v type="int" >        8       16       35       36       40 </v>
   <v type="int" >        8       17       20       21       41 </v>
   <v type="int" >        8       16       17       20       41 </v>
   <v type="int" >        4       16       20       40       41 </v>
   <v type="int" >        4       20       21       41       45 </v>
   <v type="int" >        8       20       41       44       45 </v>
   <v type="int" >        8       20       40       41       44 </v>
   <v type="int" >        8       21       21       23       45 </v>
   <v type="int" >        8       20       21       21       45 </v>
   <v type="int" >        4       20       21       44       45 </v>
   <v type="int" >        4       21       23       45       47 </v>
   <v type="int" >        8       21       45       45       47 </v>
   <v type="int" >        8       21       44       45       45 </v>
   <v type="int" >        8       22       23       24       47 </v>
   <v type="int" >        8       21       22       23       47 </v>
   <v type="int" >        4       21       22       45       47 </v>
   <v type="int" >        4       22       24       47       48 </v>
   <v type="int" >        8       22       46       47       48 </v>
   <v type="int" >        8       22       45       46       47 </v>
   <v type="int" >        8       22       23       24       48 </v>
   <v type="int" >        4       22       22       24       48 </v>
   <v type="int" >        4       22       22       46       48 </v>
   <v type="int" >        4       22       23       47       48 </v>
   <v type="int" >        8       22       46       46       48 </v>
   <v type="int" >        4       21       21       23       47 </v>
   <v type="int" >        4       21       22       46       47 </v>
   <v type="int" >        4       21       21       45       47 </v>
   <v type="int" >        8       21       45       46       47 </v>
   <v type="int" >        4       20       21       45       45 </v>
   <v type="int" >        4       17       20       41       45 </v>
   <v type="int" >        4       20       44       45       45 </v>
   <v type="int" >        4       16       20       41       44 </v>
   <v type="int" >        4       12       16       36       41 </v>
   <v type="int" >        4       11       16       36       40 </v>
   <v type="int" >        4        5       11       29       36 </v>
   <v type="int" >        4        4       11       29       35 </v>
   <v type="int" >        8        6       12       13       30 </v>
   <v type="int" >        8        5        6       12       30 </v>
   <v type="int" >        4        5       12       29       30 </v>
   <v type="int" >        4       12       13       30       37 </v>
   <v type="int" >        8       12       30       36       37 </v>
   <v type="int" >        8       12       29       30       36 </v>
   <v type="int" >        8       13       17       18       37 </v>
   <v type="int" >        8       12       13       17       37 </v>
   <v type="int" >        4       12       17       36       37 </v>
   <v type="int" >        4       17       18       37       42 </v>
   <v type="int" >        8       17       37       41       42 </v>
   <v type="int" >        8       17       36       37       41 </v>
   <v type="int" >        8       18       21       22       42 </v>
   <v type="int" >        8       17       18       21       42 </v>
   <v type="int" >        4       17       21       41       42 </v>
   <v type="int" >        4       21       22       42       46 </v>
   <v type="int" >        8       21       42       45       46 </v>
   <v type="int" >        8       21       41       42       45 </v>
   <v type="int" >        8       22       23       24       46 </v>
   <v type="int" >        8       21       22       23       46 </v>
   <v type="int" >        4       21       23       45       46 </v>
   <v type="int" >        4       23       24       46       48 </v>
   <v type="int" >        8       23       46       47       48 </v>
   <v type="int" >        8       23       45       46       47 </v>
   <v type="int" >        4       24       24       24       48 </v>
   <v type="int" >        8       23       24       24       48 </v>
   <v type="int" >        4       23       24       47       48 </v>
   <v type="int" >        4       24       24       48       48 </v>
   <v type="int" >        4       24       48       48       48 </v>
   <v type="int" >        8       24       47       48       48 </v>
   <v type="int" >        4       23       24       48       48 </v>
   <v type="int" >        4       22       23       46       48 </v>
   <v type="int" >        4       23       47       48       48 </v>
   <v type="int" >        4       21       23       46       47 </v>
   <v type="int" >        4       18       21       42       46 </v>
   <v type="int" >        4       17       21       42       45 </v>
   <v type="int" >        4       13       17       37       42 </v>
   <v type="int" >        4       12       17       37       41 </v>
   <v type="int" >        4        6       12       30       37 </v>
   <v type="int" >        4        5       12       30       36 </v>
   <v type="int" >        8        7       13       14       31 </v>
   <v type="int" >        8        6        7       13       31 </v>
   <v type="int" >        4        6       13       30       31 </v>
   <v type="int" >        4       13       14       31       38 </v>
   <v type="int" >        8       13       31       37       38 </v>
   <v type="int" >        8       13       30       31       37 </v>
   <v type="int" >        8       14       18       19       38 </v>
   <v type="int" >        8       13       14       18       38 </v>
   <v type="int" >        4       13       18       37       38 </v>
   <v type="int" >        4       18       19       38       43 </v>
   <v type="int" >        8       18       38       42       43 </v>
   <v type="int" >        8       18       37       38       42 </v>
   <v type="int" >        4       19       22       22       43 </v>
   <v type="int" >        8       18       19       22       43 </v>
   <v type="int" >        4       18       22       42       43 </v>
   <v type="int" >        4       22       22       43       46 </v>
   <v type="int" >        8       22       43       46       46 </v>
   <v type="int" >        8       22       42       43       46 </v>
   <v type="int" >        8       22       22       24       46 </v>
   <v type="int" >        4       22       24       46       46 </v>
   <v type="int" >        4       23       24       46       47 </v>
   <v type="int" >        8       24       46       47       48 </v>
   <v type="int" >        4       24       46       46       48 </v>
   <v type="int" >        4       23       24       24       47 </v>
   <v type="int" >        4       24       24       47       48 </v>
   <v type="int" >        4       22       24       46       47 </v>
   <v type="int" >        4       22       24       46       48 </v>
   <v type="int" >        4       19       22       43       46 </v>
   <v type="int" >        4       18       22       43       46 </v>
   <v type="int" >        4       14       18       38       43 </v>
   <v type="int" >        4       13       18       38       42 </v>
   <v type="int" >        4        7       13       31       38 </v>
   <v type="int" >        4        6       13       31       37 </v>
   <v type="int" >        4        8       14       14       32 </v>
   <v type="int" >        8        7        8       14       32 </v>
   <v type="int" >        4        7       14       31       32 </v>
   <v type="int" >        4       14       14       32       38 </v>
   <v type="int" >        8       14       32       38       38 </v>
   <v type="int" >        8       14       31       32       38 </v>
   <v type="int" >        8       14       14       19       38 </v>
   <v type="int" >        4       14       19       38       38 </v>
   <v type="int" >        4       18       19       38       42 </v>
   <v type="int" >        8       19       38       42       43 </v>
   <v type="int" >        4       19       38       38       43 </v>
   <v type="int" >        8       18       19       22       42 </v>
   <v type="int" >        4       19       22       42       43 </v>
   <v type="int" >        4       21       22       42       45 </v>
   <v type="int" >        8       22       42       45       46 </v>
   <v type="int" >        8       21       22       23       45 </v>
   <v type="int" >        4       22       23       45       46 </v>
   <v type="int" >        4       21       23       45       45 </v>
   <v type="int" >        4       23       45       45       47 </v>
   <v type="int" >        4       22       23       45       47 </v>
   <v type="int" >        4       18       22       42       45 </v>
   <v type="int" >        4       19       22       42       46 </v>
   <v type="int" >        4       14       19       38       42 </v>
   <v type="int" >        4       14       19       38       43 </v>
   <v type="int" >        4        8       14       32       38 </v>
   <v type="int" >        4        7       14       32       38 </v>
   <v type="int" >        8        7        8       14       31 </v>
   <v type="int" >        4        8       14       31       32 </v>
   <v type="int" >        4       13       14       31       37 </v>
   <v type="int" >        8       14       31       37       38 </v>
   <v type="int" >        8       13       14       18       37 </v>
   <v type="int" >        4       14       18       37       38 </v>
   <v type="int" >        4       17       18       37       41 </v>
   <v type="int" >        8       18       37       41       42 </v>
   <v type="int" >        8       17       18       21       41 </v>
   <v type="int" >        4       18       21       41       42 </v>
   <v type="int" >        4       20       21       41       44 </v>
   <v type="int" >        8       21       41       44       45 </v>
   <v type="int" >        4       20       21       21       44 </v>
   <v type="int" >        4       21       21       44       45 </v>
   <v type="int" >        4       17       21       41       44 </v>
   <v type="int" >        4       18       21       41       45 </v>
   <v type="int" >        4       13       18       37       41 </v>
   <v type="int" >        4       14       18       37       42 </v>
   <v type="int" >        4        7       14       31       37 </v>
   <v type="int" >        4        8       14       31       38 </v>
   <v type="int" >        8        6        7       13       30 </v>
   <v type="int" >        4        7       13       30       31 </v>
   <v type="int" >        4       12       13       30       36 </v>
   <v type="int" >        8       13       30       36       37 </v>
   <v type="int" >        8       12       13       17       36 </v>
   <v type="int" >        4       13       17       36       37 </v>
   <v type="int" >        4       16       17       36       40 </v>
   <v type="int" >        8       17       36       40       41 </v>
   <v type="int" >        8       16       17       20       40 </v>
   <v type="int" >        4       17       20       40       41 </v>
   <v type="int" >        4       16       20       40       40 </v>
   <v type="int" >        4       20       40       40       44 </v>
   <v type="int" >        4       17       20       40       44 </v>
   <v type="int" >        4       12       17       36       40 </v>
   <v type="int" >        4       13       17       36       41 </v>
   <v type="int" >        4        6       13       30       36 </v>
   <v type="int" >        4        7       13       30       37 </v>
   <v type="int" >        8        5        6       12       29 </v>
   <v type="int" >        4        6       12       29       30 </v>
   <v type="int" >        4       11       12       29       35 </v>
   <v type="int" >        8       12       29       35       36 </v>
   <v type="int" >        8       11       12       16       35 </v>
   <v type="int" >        4       12       16       35       36 </v>
   <v type="int" >        4       15       16       35       39 </v>
   <v type="int" >        8       16       35       39       40 </v>
   <v type="int" >        4       15       16       16       39 </v>
   <v type="int" >        4       16       16       39       40 </v>
   <v type="int" >        4       11       16       35       39 </v>
   <v type="int" >        4       12       16       35       40 </v>
   <v type="int" >        4        5       12       29       35 </v>
   <v type="int" >        4        6       12       29       36 </v>
   <v type="int" >        8        4        5       11       28 </v>
   <v type="int" >        4        5       11       28       29 </v>
   <v type="int" >        4       10       11       28       34 </v>
   <v type="int" >        8       11       28       34       35 </v>
   <v type="int" >        8       10       11       15       34 </v>
   <v type="int" >        4       11       15       34       35 </v>
   <v type="int" >        4       10       15       34       34 </v>
   <v type="int" >        4       15       34       34       39 </v>
   <v type="int" >        4       11       15       34       39 </v>
   <v type="int" >        4        4       11       28       34 </v>
   <v type="int" >        4        5       11       28       35 </v>
   <v type="int" >        8        3        4       10       27 </v>
   <v type="int" >        4        4       10       27       28 </v>
   <v type="int" >        4        9       10       27       33 </v>
   <v type="int" >        8       10       27       33       34 </v>
   <v type="int" >        4        9       10       10       33 </v>
   <v type="int" >        4       10       10       33       34 </v>
   <v type="int" >        4        3       10       27       33 </v>
   <v type="int" >        4        4       10       27       34 </v>
   <v type="int" >        8        2        3        9       26 </v>
   <v type="int" >        4        3        9       26       27 </v>
   <v type="int" >        4        2        9       26       26 </v>
   <v type="int" >        4        9       26       26       33 </v>
   <v type="int" >        4        3        9       26       33 </v>
   <v type="int" >        4        1        2        2       25 </v>
   <v type="int" >        4        2        2       25       26 </v>
   <v type="int" >        8       26       26       33       50 </v>
   <v type="int" >        8       25       26       26       50 </v>
   <v type="int" >        4       25       26       49       50 </v>
   <v type="int" >        4       26       33       50       57 </v>
   <v type="int" >        8       26       50       50       57 </v>
   <v type="int" >        8       26       49       50       50 </v>
   <v type="int" >        8       27       33       34       57 </v>
   <v type="int" >        8       26       27       33       57 </v>
   <v type="int" >        4       26       27       50       57 </v>
   <v type="int" >        4       27       34       57       58 </v>
   <v type="int" >        8       27       51       57       58 </v>
   <v type="int" >        8       27       50       51       57 </v>
   <v type="int" >        8       28       34       35       58 </v>
   <v type="int" >        8       27       28       34       58 </v>
   <v type="int" >        4       27       28       51       58 </v>
   <v type="int" >        4       28       35       58       59 </v>
   <v type="int" >        8       28       52       58       59 </v>
   <v type="int" >        8       28       51       52       58 </v>
   <v type="int" >        8       29       35       36       59 </v>
   <v type="int" >        8       28       29       35       59 </v>
   <v type="int" >        4       28       29       52       59 </v>
   <v type="int" >        4       29       36       59       60 </v>
   <v type="int" >        8       29       53       59       60 </v>
   <v type="int" >        8       29       52       53       59 </v>
   <v type="int" >        8       30       36       37       60 </v>
   <v type="int" >        8       29       30       36       60 </v>
   <v type="int" >        4       29       30       53       60 </v>
   <v type="int" >        4       30       37       60       61 </v>
   <v type="int" >        8       30       54       60       61 </v>
   <v type="int" >        8       30       53       54       60 </v>
   <v type="int" >        8       31       37       38       61 </v>
   <v type="int" >        8       30       31       37       61 </v>
   <v type="int" >        4       30       31       54       61 </v>
   <v type="int" >        4       31       38       61       62 </v>
   <v type="int" >        8       31       55       61       62 </v>
   <v type="int" >        8       31       54       55       61 </v>
   <v type="int" >        8       32       38       38       62 </v>
   <v type="int" >        8       31       32       38       62 </v>
   <v type="int" >        4       31       32       55       62 </v>
   <v type="int" >        4       32       38       62       62 </v>
   <v type="int" >        4       32       56       62       62 </v>
   <v type="int" >        8       32       55       56       62 </v>
   <v type="int" >        8       31       37       38       62 </v>
   <v type="int" >        4       31       32       56       62 </v>
   <v type="int" >        4       31       37       61       62 </v>
   <v type="int" >        8       31       55       56       62 </v>
   <v type="int" >        8       30       36       37       61 </v>
   <v type="int" >        4       30       31       55       61 </v>
   <v type="int" >        4       30       36       60       61 </v>
   <v type="int" >        8       30       54       55       61 </v>
   <v type="int" >        8       29       35       36       60 </v>
   <v type="int" >        4       29       30       54       60 </v>
   <v type="int" >        4       29       35       59       60 </v>
   <v type="int" >        8       29       53       54       60 </v>
   <v type="int" >        8       28       34       35       59 </v>
   <v type="int" >        4       28       29       53       59 </v>
   <v type="int" >        4       28       34       58       59 </v>
   <v type="int" >        8       28       52       53       59 </v>
   <v type="int" >        8       27       33       34       58 </v>
   <v type="int" >        4       27       28       52       58 </v>
   <v type="int" >        4       27       33       57       58 </v>
   <v type="int" >        8       27       51       52       58 </v>
   <v type="int" >        4       26       26       33       57 </v>
   <v type="int" >        4       26       27       51       57 </v>
   <v type="int" >        4       26       26       50       57 </v>
   <v type="int" >        8       26       50       51       57 </v>
   <v type="int" >        4       25       26       50       50 </v>
   <v type="int" >        4       25       49       50       50 </v>
   <v type="int" >        8       27       33       34       51 </v>
   <v type="int" >        8       26       27       33       51 </v>
   <v type="int" >        4       26       33       50       51 </v>
   <v type="int" >        4       33       34       51       58 </v>
   <v type="int" >        8       33       51       57       58 </v>
   <v type="int" >        8       33       50       51       57 </v>
   <v type="int" >        8       34       34       39       58 </v>
   <v type="int" >        8       33       34       34       58 </v>
   <v type="int" >        4       33       34       57       58 </v>
   <v type="int" >        4       34       39       58       63 </v>
   <v type="int" >        8       34       58       58       63 </v>
   <v type="int" >        8       34       57       58       58 </v>
   <v type="int" >        8       35       39       40       63 </v>
   <v type="int" >        8       34       35       39       63 </v>
   <v type="int" >        4       34       35       58       63 </v>
   <v type="int" >        4       35       40       63       64 </v>
   <v type="int" >        8       35       59       63       64 </v>
   <v type="int" >        8       35       58       59       63 </v>
   <v type="int" >        8       36       40       41       64 </v>
   <v type="int" >        8       35       36       40       64 </v>
   <v type="int" >        4       35       36       59       64 </v>
   <v type="int" >        4       36       41       64       65 </v>
   <v type="int" >        8       36       60       64       65 </v>
   <v type="int" >        8       36       59       60       64 </v>
   <v type="int" >        8       37       41       42       65 </v>
   <v type="int" >        8       36       37       41       65 </v>
   <v type="int" >        4       36       37       60       65 </v>
   <v type="int" >        4       37       42       65       66 </v>
   <v type="int" >        8       37       61       65       66 </v>
   <v type="int" >        8       37       60       61       65 </v>
   <v type="int" >        8       38       42       43       66 </v>
   <v type="int" >        8       37       38       42       66 </v>
   <v type="int" >        4       37       38       61       66 </v>
   <v type="int" >        4       38       43       66       67 </v>
   <v type="int" >        8       38       62       66       67 </v>
   <v type="int" >        8       38       61       62       66 </v>
   <v type="int" >        8       38       42       43       67 </v>
   <v type="int" >        4       38       38       43       67 </v>
   <v type="int" >        4       38       38       62       67 </v>
   <v type="int" >        4       38       42       66       67 </v>
   <v type="int" >        8       38       62       62       67 </v>
   <v type="int" >        8       37       41       42       66 </v>
   <v type="int" >        4       37       38       62       66 </v>
   <v type="int" >        4       37       41       65       66 </v>
   <v type="int" >        8       37       61       62       66 </v>
   <v type="int" >        8       36       40       41       65 </v>
   <v type="int" >        4       36       37       61       65 </v>
   <v type="int" >        4       36       40       64       65 </v>
   <v type="int" >        8       36       60       61       65 </v>
   <v type="int" >        8       35       39       40       64 </v>
   <v type="int" >        4       35       36       60       64 </v>
   <v type="int" >        4       35       39       63       64 </v>
   <v type="int" >        8       35       59       60       64 </v>
   <v type="int" >        4       34       34       39       63 </v>
   <v type="int" >        4       34       35       59       63 </v>
   <v type="int" >        4       34       34       58       63 </v>
   <v type="int" >        8       34       58       59       63 </v>
   <v type="int" >        4       33       34       58       58 </v>
   <v type="int" >        4       27       33       51       58 </v>
   <v type="int" >        4       33       57       58       58 </v>
   <v type="int" >        4       26       33       51       57 </v>
   <v type="int" >        8       28       34       35       52 </v>
   <v type="int" >        8       27       28       34       52 </v>
   <v type="int" >        4       27       34       51       52 </v>
   <v type="int" >        4       34       35       52       59 </v>
   <v type="int" >        8       34       52       58       59 </v>
   <v type="int" >        8       34       51       52       58 </v>
   <v type="int" >        8       35       39       40       59 </v>
   <v type="int" >        8       34       35       39       59 </v>
   <v type="int" >        4       34       39       58       59 </v>
   <v type="int" >        4       39       40       59       64 </v>
   <v type="int" >        8       39       59       63       64 </v>
   <v type="int" >        8       39       58       59       63 </v>
   <v type="int" >        8       40       40       44       64 </v>
   <v type="int" >        8       39       40       40       64 </v>
   <v type="int" >        4       39       40       63       64 </v>
   <v type="int" >        4       40       44       64       68 </v>
   <v type="int" >        8       40       64       64       68 </v>
   <v type="int" >        8       40       63       64       64 </v>
   <v type="int" >        8       41       44       45       68 </v>
   <v type="int" >        8       40       41       44       68 </v>
   <v type="int" >        4       40       41       64       68 </v>
   <v type="int" >        4       41       45       68       69 </v>
   <v type="int" >        8       41       65       68       69 </v>
   <v type="int" >        8       41       64       65       68 </v>
   <v type="int" >        8       42       45       46       69 </v>
   <v type="int" >        8       41       42       45       69 </v>
   <v type="int" >        4       41       42       65       69 </v>
   <v type="int" >        4       42       46       69       70 </v>
   <v type="int" >        8       42       66       69       70 </v>
   <v type="int" >        8       42       65       66       69 </v>
   <v type="int" >        8       43       46       46       70 </v>
   <v type="int" >        8       42       43       46       70 </v>
   <v type="int" >        4       42       43       66       70 </v>
   <v type="int" >        4       43       46       70       70 </v>
   <v type="int" >        4       43       67       70       70 </v>
   <v type="int" >        8       43       66       67       70 </v>
   <v type="int" >        8       42       45       46       70 </v>
   <v type="int" >        4       42       43       67       70 </v>
   <v type="int" >        4       42       45       69       70 </v>
   <v type="int" >        8       42       66       67       70 </v>
   <v type="int" >        8       41       44       45       69 </v>
   <v type="int" >        4       41       42       66       69 </v>
   <v type="int" >        4       41       44       68       69 </v>
   <v type="int" >        8       41       65       66       69 </v>
   <v type="int" >        4       40       40       44       68 </v>
   <v type="int" >        4       40       41       65       68 </v>
   <v type="int" >        4       40       40       64       68 </v>
   <v type="int" >        8       40       64       65       68 </v>
   <v type="int" >        4       39       40       64       64 </v>
   <v type="int" >        4       35       39       59       64 </v>
   <v type="int" >        4       39       63       64       64 </v>
   <v type="int" >        4       34       39       59       63 </v>
   <v type="int" >        4       28       34       52       59 </v>
   <v type="int" >        4       27       34       52       58 </v>
   <v type="int" >        8       29       35       36       53 </v>
   <v type="int" >        8       28       29       35       53 </v>
   <v type="int" >        4       28       35       52       53 </v>
   <v type="int" >        4       35       36       53       60 </v>
   <v type="int" >        8       35       53       59       60 </v>
   <v type="int" >        8       35       52       53       59 </v>
   <v type="int" >        8       36       40       41       60 </v>
   <v type="int" >        8       35       36       40       60 </v>
   <v type="int" >        4       35       40       59       60 </v>
   <v type="int" >        4       40       41       60       65 </v>
   <v type="int" >        8       40       60       64       65 </v>
   <v type="int" >        8       40       59       60       64 </v>
   <v type="int" >        8       41       44       45       65 </v>
   <v type="int" >        8       40       41       44       65 </v>
   <v type="int" >        4       40       44       64       65 </v>
   <v type="int" >        4       44       45       65       69 </v>
   <v type="int" >        8       44       65       68       69 </v>
   <v type="int" >        8       44       64       65       68 </v>
   <v type="int" >        8       45       45       47       69 </v>
   <v type="int" >        8       44       45       45       69 </v>
   <v type="int" >        4       44       45       68       69 </v>
   <v type="int" >        4       45       47       69       71 </v>
   <v type="int" >        8       45       69       69       71 </v>
   <v type="int" >        8       45       68       69       69 </v>
   <v type="int" >        8       46       47       48       71 </v>
   <v type="int" >        8       45       46       47       71 </v>
   <v type="int" >        4       45       46       69       71 </v>
   <v type="int" >        4       46       48       71       72 </v>
   <v type="int" >        8       46       70       71       72 </v>
   <v type="int" >        8       46       69       70       71 </v>
   <v type="int" >        8       46       47       48       72 </v>
   <v type="int" >        4       46       46       48       72 </v>
   <v type="int" >        4       46       46       70       72 </v>
   <v type="int" >        4       46       47       71       72 </v>
   <v type="int" >        8       46       70       70       72 </v>
   <v type="int" >        4       45       45       47       71 </v>
   <v type="int" >        4       45       46       70       71 </v>
   <v type="int" >        4       45       45       69       71 </v>
   <v type="int" >        8       45       69       70       71 </v>
   <v type="int" >        4       44       45       69       69 </v>
   <v type="int" >        4       41       44       65       69 </v>
   <v type="int" >        4       44       68       69       69 </v>
   <v type="int" >        4       40       44       65       68 </v>
   <v type="int" >        4       36       40       60       65 </v>
   <v type="int" >        4       35       40       60       64 </v>
   <v type="int" >        4       29       35       53       60 </v>
   <v type="int" >        4       28       35       53       59 </v>
   <v type="int" >        8       30       36       37       54 </v>
   <v type="int" >        8       29       30       36       54 </v>
   <v type="int" >        4       29       36       53       54 </v>
   <v type="int" >        4       36       37       54       61 </v>
   <v type="int" >        8       36       54       60       61 </v>
   <v type="int" >        8       36       53       54       60 </v>
   <v type="int" >        8       37       41       42       61 </v>
   <v type="int" >        8       36       37       41       61 </v>
   <v type="int" >        4       36       41       60       61 </v>
   <v type="int" >        4       41       42       61       66 </v>
   <v type="int" >        8       41       61       65       66 </v>
   <v type="int" >        8       41       60       61       65 </v>
   <v type="int" >        8       42       45       46       66 </v>
   <v type="int" >        8       41       42       45       66 </v>
   <v type="int" >        4       41       45       65       66 </v>
   <v type="int" >        4       45       46       66       70 </v>
   <v type="int" >        8       45       66       69       70 </v>
   <v type="int" >        8       45       65       66       69 </v>
   <v type="int" >        8       46       47       48       70 </v>
   <v type="int" >        8       45       46       47       70 </v>
   <v type="int" >        4       45       47       69       70 </v>
   <v type="int" >        4       47       48       70       72 </v>
   <v type="int" >        8       47       70       71       72 </v>
   <v type="int" >        8       47       69       70       71 </v>
   <v type="int" >        4       48       48       48       72 </v>
   <v type="int" >        8       47       48       48       72 </v>
   <v type="int" >        4       47       48       71       72 </v>
   <v type="int" >        4       48       48       72       72 </v>
   <v type="int" >        4       48       72       72       72 </v>
   <v type="int" >        8       48       71       72       72 </v>
   <v type="int" >        4       47       48       72       72 </v>
   <v type="int" >        4       46       47       70       72 </v>
   <v type="int" >        4       47       71       72       72 </v>
   <v type="int" >        4       45       47       70       71 </v>
   <v type="int" >        4       42       45       66       70 </v>
   <v type="int" >        4       41       45       66       69 </v>
   <v type="int" >        4       37       41       61       66 </v>
   <v type="int" >        4       36       41       61       65 </v>
   <v type="int" >        4       30       36       54       61 </v>
   <v type="int" >        4       29       36       54       60 </v>
   <v type="int" >        8       31       37       38       55 </v>
   <v type="int" >        8       30       31       37       55 </v>
   <v type="int" >        4       30       37       54       55 </v>
   <v type="int" >        4       37       38       55       62 </v>
   <v type="int" >        8       37       55       61       62 </v>
   <v type="int" >        8       37       54       55       61 </v>
   <v type="int" >        8       38       42       43       62 </v>
   <v type="int" >        8       37       38       42       62 </v>
   <v type="int" >        4       37       42       61       62 </v>
   <v type="int" >        4       42       43       62       67 </v>
   <v type="int" >        8       42       62       66       67 </v>
   <v type="int" >        8       42       61       62       66 </v>
   <v type="int" >        4       43       46       46       67 </v>
   <v type="int" >        8       42       43       46       67 </v>
   <v type="int" >        4       42       46       66       67 </v>
   <v type="int" >        4       46       46       67       70 </v>
   <v type="int" >        8       46       67       70       70 </v>
   <v type="int" >        8       46       66       67       70 </v>
   <v type="int" >        8       46       46       48       70 </v>
   <v type="int" >        4       46       48       70       70 </v>
   <v type="int" >        4       47       48       70       71 </v>
   <v type="int" >        8       48       70       71       72 </v>
   <v type="int" >        4       48       70       70       72 </v>
   <v type="int" >        4       47       48       48       71 </v>
   <v type="int" >        4       48       48       71       72 </v>
   <v type="int" >        4       46       48       70       71 </v>
   <v type="int" >        4       46       48       70       72 </v>
   <v type="int" >        4       43       46       67       70 </v>
   <v type="int" >        4       42       46       67       70 </v>
   <v type="int" >        4       38       42       62       67 </v>
   <v type="int" >        4       37       42       62       66 </v>
   <v type="int" >        4       31       37       55       62 </v>
   <v type="int" >        4       30       37       55       61 </v>
   <v type="int" >        4       32       38       38       56 </v>
   <v type="int" >        8       31       32       38       56 </v>
   <v type="int" >        4       31       38       55       56 </v>
   <v type="int" >        4       38       38       56       62 </v>
   <v type="int" >        8       38       56       62       62 </v>
   <v type="int" >        8       38       55       56       62 </v>
   <v type="int" >        8       38       38       43       62 </v>
   <v type="int" >        4       38       43       62       62 </v>
   <v type="int" >        4       42       43       62       66 </v>
   <v type="int" >        8       43       62       66       67 </v>
   <v type="int" >        4       43       62       62       67 </v>
   <v type="int" >        8       42       43       46       66 </v>
   <v type="int" >        4       43       46       66       67 </v>
   <v type="int" >        4       45       46       66       69 </v>
   <v type="int" >        8       46       66       69       70 </v>
   <v type="int" >        8       45       46       47       69 </v>
   <v type="int" >        4       46       47       69       70 </v>
   <v type="int" >        4       45       47       69       69 </v>
   <v type="int" >        4       47       69       69       71 </v>
   <v type="int" >        4       46       47       69       71 </v>
   <v type="int" >        4       42       46       66       69 </v>
   <v type="int" >        4       43       46       66       70 </v>
   <v type="int" >        4       38       43       62       66 </v>
   <v type="int" >        4       38       43       62       67 </v>
   <v type="int" >        4       32       38       56       62 </v>
   <v type="int" >        4       31       38       56       62 </v>
   <v type="int" >        8       31       32       38       55 </v>
   <v type="int" >        4       32       38       55       56 </v>
   <v type="int" >        4       37       38       55       61 </v>
   <v type="int" >        8       38       55       61       62 </v>
   <v type="int" >        8       37       38       42       61 </v>
   <v type="int" >        4       38       42       61       62 </v>
   <v type="int" >        4       41       42       61       65 </v>
   <v type="int" >        8       42       61       65       66 </v>
   <v type="int" >        8       41       42       45       65 </v>
   <v type="int" >        4       42       45       65       66 </v>
   <v type="int" >        4       44       45       65       68 </v>
   <v type="int" >        8       45       65       68       69 </v>
   <v type="int" >        4       44       45       45       68 </v>
   <v type="int" >        4       45       45       68       69 </v>
   <v type="int" >        4       41       45       65       68 </v>
   <v type="int" >        4       42       45       65       69 </v>
   <v type="int" >        4       37       42       61       65 </v>
   <v type="int" >        4       38       42       61       66 </v>
   <v type="int" >        4       31       38       55       61 </v>
   <v type="int" >        4       32       38       55       62 </v>
   <v type="int" >        8       30       31       37       54 </v>
   <v type="int" >        4       31       37       54       55 </v>
   <v type="int" >        4       36       37       54       60 </v>
   <v type="int" >        8       37       54       60       61 </v>
   <v type="int" >        8       36       37       41       60 </v>
   <v type="int" >        4       37       41       60       61 </v>
   <v type="int" >        4       40       41       60       64 </v>
   <v type="int" >        8       41       60       64       65 </v>
   <v type="int" >        8       40       41       44       64 </v>
   <v type="int" >        4       41       44       64       65 </v>
   <v type="int" >        4       40       44       64       64 </v>
   <v type="int" >        4       44       64       64       68 </v>
   <v type="int" >        4       41       44       64       68 </v>
   <v type="int" >        4       36       41       60       64 </v>
   <v type="int" >        4       37       41       60       65 </v>
   <v type="int" >        4       30       37       54       60 </v>
   <v type="int" >        4       31       37       54       61 </v>
   <v type="int" >        8       29       30       36       53 </v>
   <v type="int" >        4       30       36       53       54 </v>
   <v type="int" >        4       35       36       53       59 </v>
   <v type="int" >        8       36       53       59       60 </v>
   <v type="int" >        8       35       36       40       59 </v>
   <v type="int" >        4       36       40       59       60 </v>
   <v type="int" >        4       39       40       59       63 </v>
   <v type="int" >        8       40       59       63       64 </v>
   <v type="int" >        4       39       40       40       63 </v>
   <v type="int" >        4       40       40       63       64 </v>
   <v type="int" >        4       35       40       59       63 </v>
   <v type="int" >        4       36       40       59       64 </v>
   <v type="int" >        4       29       36       53       59 </v>
   <v type="int" >        4       30       36       53       60 </v>
   <v type="int" >        8       28       29       35       52 </v>
   <v type="int" >        4       29       35       52       53 </v>
   <v type="int" >        4       34       35       52       58 </v>
   <v type="int" >        8       35       52       58       59 </v>
   <v type="int" >        8       34       35       39       58 </v>
   <v type="int" >        4       35       39       58       59 </v>
   <v type="int" >        4       34       39       58       58 </v>
   <v type="int" >        4       39       58       58       63 </v>
   <v type="int" >        4       35       39       58       63 </v>
   <v type="int" >        4       28       35       52       58 </v>
   <v type="int" >        4       29       35       52       59 </v>
   <v type="int" >        8       27       28       34       51 </v>
   <v type="int" >        4       28       34       51       52 </v>
   <v type="int" >        4       33       34       51       57 </v>
   <v type="int" >        8       34       51       57       58 </v>
   <v type="int" >        4       33       34       34       57 </v>
   <v type="int" >        4       34       34       57       58 </v>
   <v type="int" >        4       27       34       51       57 </v>
   <v type="int" >        4       28       34       51       58 </v>
   <v type="int" >        8       26       27       33       50 </v>
   <v type="int" >        4       27       33       50       51 </v>
   <v type="int" >        4       26       33       50       50 </v>
   <v type="int" >        4       33       50       50       57 </v>
   <v type="int" >        4       27       33       50       57 </v>
   <v type="int" >        4       25       26       26       49 </v>
   <v type="int" >        4       26       26       49       50 </v>
   <v type="int" >        8       50       50       57       74 </v>
   <v type="int" >        8       49       50       50       74 </v>
   <v type="int" >        4       49       50       73       74 </v>
   <v type="int" >        4       50       57       74       81 </v>
   <v type="int" >        8       50       74       74       81 </v>
   <v type="int" >        8       50       73       74       74 </v>
   <v type="int" >        8       51       57       58       81 </v>
   <v type="int" >        8       50       51       57       81 </v>
   <v type="int" >        4       50       51       74       81 </v>
   <v type="int" >        4       51       58       81       82 </v>
   <v type="int" >        8       51       75       81       82 </v>
   <v type="int" >        8       51       74       75       81 </v>
   <v type="int" >        8       52       58       59       82 </v>
   <v type="int" >        8       51       52       58       82 </v>
   <v type="int" >        4       51       52       75       82 </v>
   <v type="int" >        4       52       59       82       83 </v>
   <v type="int" >        8       52       76       82       83 </v>
   <v type="int" >        8       52       75       76       82 </v>
   <v type="int" >        8       53       59       60       83 </v>
   <v type="int" >        8       52       53       59       83 </v>
   <v type="int" >        4       52       53       76       83 </v>
   <v type="int" >        4       53       60       83       84 </v>
   <v type="int" >        8       53       77       83       84 </v>
   <v type="int" >        8       53       76       77       83 </v>
   <v type="int" >        8       54       60       61       84 </v>
   <v type="int" >        8       53       54       60       84 </v>
   <v type="int" >        4       53       54       77       84 </v>
   <v type="int" >        4       54       61       84       85 </v>
   <v type="int" >        8       54       78       84       85 </v>
   <v type="int" >        8       54       77       78       84 </v>
   <v type="int" >        8       55       61       62       85 </v>
   <v type="int" >        8       54       55       61       85 </v>
   <v type="int" >        4       54       55       78       85 </v>
   <v type="int" >        4       55       62       85       86 </v>
   <v type="int" >        8       55       79       85       86 </v>
   <v type="int" >        8       55       78       79       85 </v>
   <v type="int" >        8       56       62       62       86 </v>
   <v type="int" >        8       55       56       62       86 </v>
   <v type="int" >        4       55       56       79       86 </v>
   <v type="int" >        4       56       62       86       86 </v>
   <v type="int" >        4       56       80       86       86 </v>
   <v type="int" >        8       56       79       80       86 </v>
   <v type="int" >        8       55       61       62       86 </v>
   <v type="int" >        4       55       56       80       86 </v>
   <v type="int" >        4       55       61       85       86 </v>
   <v type="int" >        8       55       79       80       86 </v>
   <v type="int" >        8       54       60       61       85 </v>
   <v type="int" >        4       54       55       79       85 </v>
   <v type="int" >        4       54       60       84       85 </v>
   <v type="int" >        8       54       78       79       85 </v>
   <v type="int" >        8       53       59       60       84 </v>
   <v type="int" >        4       53       54       78       84 </v>
   <v type="int" >        4       53       59       83       84 </v>
   <v type="int" >        8       53       77       78       84 </v>
   <v type="int" >        8       52       58       59       83 </v>
   <v type="int" >        4       52       53       77       83 </v>
   <v type="int" >        4       52       58       82       83 </v>
   <v type="int" >        8       52       76       77       83 </v>
   <v type="int" >        8       51       57       58       82 </v>
   <v type="int" >        4       51       52       76       82 </v>
   <v type="int" >        4       51       57       81       82 </v>
   <v type="int" >        8       51       75       76       82 </v>
   <v type="int" >        4       50       50       57       81 </v>
   <v type="int" >        4       50       51       75       81 </v>
   <v type="int" >        4       50       50       74       81 </v>
   <v type="int" >        8       50       74       75       81 </v>
   <v type="int" >        4       49       50       74       74 </v>
   <v type="int" >        4       49       73       74       74 </v>
   <v type="int" >        8       51       57       58       75 </v>
   <v type="int" >        8       50       51       57       75 </v>
   <v type="int" >        4       50       57       74       75 </v>
   <v type="int" >        4       57       58       75       82 </v>
   <v type="int" >        8       57       75       81       82 </v>
   <v type="int" >        8       57       74       75       81 </v>
   <v type="int" >        8       58       58       63       82 </v>
   <v type="int" >        8       57       58       58       82 </v>
   <v type="int" >        4       57       58       81       82 </v>
   <v type="int" >        4       58       63       82       87 </v>
   <v type="int" >        8       58       82       82       87 </v>
   <v type="int" >        8       58       81       82       82 </v>
   <v type="int" >        8       59       63       64       87 </v>
   <v type="int" >        8       58       59       63       87 </v>
   <v type="int" >        4       58       59       82       87 </v>
   <v type="int" >        4       59       64       87       88 </v>
   <v type="int" >        8       59       83       87       88 </v>
   <v type="int" >        8       59       82       83       87 </v>
   <v type="int" >        8       60       64       65       88 </v>
   <v type="int" >        8       59       60       64       88 </v>
   <v type="int" >        4       59       60       83       88 </v>
   <v type="int" >        4       60       65       88       89 </v>
   <v type="int" >        8       60       84       88       89 </v>
   <v type="int" >        8       60       83       84       88 </v>
   <v type="int" >        8       61       65       66       89 </v>
   <v type="int" >        8       60       61       65       89 </v>
   <v type="int" >        4       60       61       84       89 </v>
   <v type="int" >        4       61       66       89       90 </v>
   <v type="int" >        8       61       85       89       90 </v>
   <v type="int" >        8       61       84       85       89 </v>
   <v type="int" >        8       62       66       67       90 </v>
   <v type="int" >        8       61       62       66       90 </v>
   <v type="int" >        4       61       62       85       90 </v>
   <v type="int" >        4       62       67       90       91 </v>
   <v type="int" >        8       62       86       90       91 </v>
   <v type="int" >        8       62       85       86       90 </v>
   <v type="int" >        8       62       66       67       91 </v>
   <v type="int" >        4       62       62       67       91 </v>
   <v type="int" >        4       62       62       86       91 </v>
   <v type="int" >        4       62       66       90       91 </v>
   <v type="int" >        8       62       86       86       91 </v>
   <v type="int" >        8       61       65       66       90 </v>
   <v type="int" >        4       61       62       86       90 </v>
   <v type="int" >        4       61       65       89       90 </v>
   <v type="int" >        8       61       85       86       90 </v>
   <v type="int" >        8       60       64       65       89 </v>
   <v type="int" >        4       60       61       85       89 </v>
   <v type="int" >        4       60       64       88       89 </v>
   <v type="int" >        8       60       84       85       89 </v>
   <v type="int" >        8       59       63       64       88 </v>
   <v type="int" >        4       59       60       84       88 </v>
   <v type="int" >        4       59       63       87       88 </v>
   <v type="int" >        8       59       83       84       88 </v>
   <v type="int" >        4       58       58       63       87 </v>
   <v type="int" >        4       58       59       83       87 </v>
   <v type="int" >        4       58       58       82       87 </v>
   <v type="int" >        8       58       82       83       87 </v>
   <v type="int" >        4       57       58       82       82 </v>
   <v type="int" >        4       51       57       75       82 </v>
   <v type="int" >        4       57       81       82       82 </v>
   <v type="int" >        4       50       57       75       81 </v>
   <v type="int" >        8       52       58       59       76 </v>
   <v type="int" >        8       51       52       58       76 </v>
   <v type="int" >        4       51       58       75       76 </v>
   <v type="int" >        4       58       59       76       83 </v>
   <v type="int" >        8       58       76       82       83 </v>
   <v type="int" >        8       58       75       76       82 </v>
   <v type="int" >        8       59       63       64       83 </v>
   <v type="int" >        8       58       59       63       83 </v>
   <v type="int" >        4       58       63       82       83 </v>
   <v type="int" >        4       63       64       83       88 </v>
   <v type="int" >        8       63       83       87       88 </v>
   <v type="int" >        8       63       82       83       87 </v>
   <v type="int" >        8       64       64       68       88 </v>
   <v type="int" >        8       63       64       64       88 </v>
   <v type="int" >        4       63       64       87       88 </v>
   <v type="int" >        4       64       68       88       92 </v>
   <v type="int" >        8       64       88       88       92 </v>
   <v type="int" >        8       64       87       88       88 </v>
   <v type="int" >        8       65       68       69       92 </v>
   <v type="int" >        8       64       65       68       92 </v>
   <v type="int" >        4       64       65       88       92 </v>
   <v type="int" >        4       65       69       92       93 </v>
   <v type="int" >        8       65       89       92       93 </v>
   <v type="int" >        8       65       88       89       92 </v>
   <v type="int" >        8       66       69       70       93 </v>
   <v type="int" >        8       65       66       69       93 </v>
   <v type="int" >        4       65       66       89       93 </v>
   <v type="int" >        4       66       70       93       94 </v>
   <v type="int" >        8       66       90       93       94 </v>
   <v type="int" >        8       66       89       90       93 </v>
   <v type="int" >        8       67       70       70       94 </v>
   <v type="int" >        8       66       67       70       94 </v>
   <v type="int" >        4       66       67       90       94 </v>
   <v type="int" >        4       67       70       94       94 </v>
   <v type="int" >        4       67       91       94       94 </v>
   <v type="int" >        8       67       90       91       94 </v>
   <v type="int" >        8       66       69       70       94 </v>
   <v type="int" >        4       66       67       91       94 </v>
   <v type="int" >        4       66       69       93       94 </v>
   <v type="int" >        8       66       90       91       94 </v>
   <v type="int" >        8       65       68       69       93 </v>
   <v type="int" >        4       65       66       90       93 </v>
   <v type="int" >        4       65       68       92       93 </v>
   <v type="int" >        8       65       89       90       93 </v>
   <v type="int" >        4       64       64       68       92 </v>
   <v type="int" >        4       64       65       89       92 </v>
   <v type="int" >        4       64       64       88       92 </v>
[...]
        <r>  0.0562  0.0168  0.0141  0.0138  0.0000  0.0000  0.0000  0.0000  0.0000 </r>
       </set>
       <set comment="band 2">
        <r>  0.1965  0.0195  0.0098  0.0108  0.0000  0.0000  0.0000  0.0000  0.0000 </r>
        <r>  0.0562  0.0168  0.0141  0.0138  0.0000  0.0000  0.0000  0.0000  0.0000 </r>
        <r>  0.0562  0.0168  0.0141  0.0138  0.0000  0.0000  0.0000  0.0000  0.0000 </r>
        <r>  0.1965  0.0195  0.0098  0.0108  0.0000  0.0000  0.0000  0.0000  0.0000 </r>
       </set>
       <set comment="band 3">
        <r>  0.0822  0.0041  0.0210  0.0323  0.0000  0.0000  0.0000  0.0000  0.0000 </r>
        <r>  0.0696  0.0258  0.0046  0.0814  0.0000  0.0000  0.0000  0.0000  0.0000 </r>
        <r>  0.0696  0.0258  0.0046  0.0814  0.0000  0.0000  0.0000  0.0000  0.0000 </r>
        <r>  0.0822  0.0041  0.0210  0.0323  0.0000  0.0000  0.0000  0.0000  0.0000 </r>
       </set>
       <set comment="band 4">
        <r>  0.0696  0.0258  0.0046  0.0814  0.0000  0.0000  0.0000  0.0000  0.0000 </r>
        <r>  0.0822  0.0041  0.0210  0.0323  0.0000  0.0000  0.0000  0.0000  0.0000 </r>
        <r>  0.0822  0.0041  0.0210  0.0323  0.0000  0.0000  0.0000  0.0000  0.0000 </r>
        <r>  0.0696  0.0258  0.0046  0.0814  0.0000  0.0000  0.0000  0.0000  0.0000 </r>
       </set>
       <set comment="band 5">
        <r>  0.0155  0.0664  0.0043  0.0357  0.0000  0.0000  0.0000  0.0000  0.0000 </r>
        <r>  0.0151  0.1095  0.0050  0.0551  0.0000  0.0000  0.0000  0.0000  0.0000 </r>
        <r>  0.0151  0.1095  0.0050  0.0551  0.0000  0.0000  0.0000  0.0000  0.0000 </r>
        <r>  0.0155  0.0664  0.0043  0.0357  0.0000  0.0000  0.0000  0.0000  0.0000 </r>
       </set>
       <set comment="band 6">
        <r>  0.0151  0.1095  0.0050  0.0551  0.0000  0.0000  0.0000  0.0000  0.0000 </r>
        <r>  0.0155  0.0664  0.0043  0.0357  0.0000  0.0000  0.0000  0.0000  0.0000 </r>
        <r>  0.0155  0.0664  0.0043  0.0357  0.0000  0.0000  0.0000  0.0000  0.0000 </r>
        <r>  0.0151  0.1095  0.0050  0.0551  0.0000  0.0000  0.0000  0.0000  0.0000 </r>
       </set>
       <set comment="band 7">
        <r>  0.0044  0.0361  0.0002  0.0412  0.0000  0.0000  0.0000  0.0000  0.0000 </r>
        <r>  0.0007  0.0021  0.2860  0.0003  0.0000  0.0000  0.0000  0.0000  0.0000 </r>
        <r>  0.0007  0.0021  0.2860  0.0003  0.0000  0.0000  0.0000  0.0000  0.0000 </r>
        <r>  0.0044  0.0361  0.0002  0.0412  0.0000  0.0000  0.0000  0.0000  0.0000 </r>
       </set>
       <set comment="band 8">
        <r>  0.0007  0.0021  0.2860  0.0003  0.0000  0.0000  0.0000  0.0000  0.0000 </r>
        <r>  0.0044  0.0361  0.0002  0.0412  0.0000  0.0000  0.0000  0.0000  0.0000 </r>
        <r>  0.0044  0.0361  0.0002  0.0412  0.0000  0.0000  0.0000  0.0000  0.0000 </r>
        <r>  0.0007  0.0021  0.2860  0.0003  0.0000  0.0000  0.0000  0.0000  0.0000 </r>
       </set>
       <set comment="band 9">
        <r>  0.0008  0.0005  0.0007  0.0023  0.0000  0.0000  0.0000  0.0000  0.0000 </r>
        <r>  0.1213  0.0024  0.0677  0.0293  0.0000  0.0000  0.0000  0.0000  0.0000 </r>
        <r>  0.1213  0.0024  0.0677  0.0293  0.0000  0.0000  0.0000  0.0000  0.0000 </r>
        <r>  0.0008  0.0005  0.0007  0.0023  0.0000  0.0000  0.0000  0.0000  0.0000 </r>
       </set>
       <set comment="band 10">
        <r>  0.1213  0.0024  0.0677  0.0293  0.0000  0.0000  0.0000  0.0000  0.0000 </r>
        <r>  0.0008  0.0005  0.0007  0.0023  0.0000  0.0000  0.0000  0.0000  0.0000 </r>
        <r>  0.0008  0.0005  0.0007  0.0023  0.0000  0.0000  0.0000  0.0000  0.0000 </r>
        <r>  0.1213  0.0024  0.0677  0.0293  0.0000  0.0000  0.0000  0.0000  0.0000 </r>
       </set>
       <set comment="band 11">
        <r>  0.0021  0.0920  0.0539  0.0416  0.0000  0.0000  0.0000  0.0000  0.0000 </r>
        <r>  0.0114  0.0066  0.0001  0.0131  0.0000  0.0000  0.0000  0.0000  0.0000 </r>
        <r>  0.0114  0.0066  0.0001  0.0131  0.0000  0.0000  0.0000  0.0000  0.0000 </r>
        <r>  0.0021  0.0920  0.0539  0.0416  0.0000  0.0000  0.0000  0.0000  0.0000 </r>
       </set>
       <set comment="band 12">
        <r>  0.0114  0.0066  0.0001  0.0131  0.0000  0.0000  0.0000  0.0000  0.0000 </r>
        <r>  0.0021  0.0920  0.0539  0.0416  0.0000  0.0000  0.0000  0.0000  0.0000 </r>
        <r>  0.0021  0.0920  0.0539  0.0416  0.0000  0.0000  0.0000  0.0000  0.0000 </r>
        <r>  0.0114  0.0066  0.0001  0.0131  0.0000  0.0000  0.0000  0.0000  0.0000 </r>
       </set>
       <set comment="band 13">
        <r>  0.0765  0.0205  0.0141  0.0228  0.0000  0.0000  0.0000  0.0000  0.0000 </r>
        <r>  0.0139  0.0914  0.0067  0.0554  0.0000  0.0000  0.0000  0.0000  0.0000 </r>
        <r>  0.0139  0.0914  0.0067  0.0554  0.0000  0.0000  0.0000  0.0000  0.0000 </r>
        <r>  0.0765  0.0205  0.0141  0.0227  0.0000  0.0000  0.0000  0.0000  0.0000 </r>
       </set>
       <set comment="band 14">
        <r>  0.0139  0.0914  0.0067  0.0554  0.0000  0.0000  0.0000  0.0000  0.0000 </r>
        <r>  0.0765  0.0205  0.0141  0.0228  0.0000  0.0000  0.0000  0.0000  0.0000 </r>
        <r>  0.0765  0.0205  0.0141  0.0227  0.0000  0.0000  0.0000  0.0000  0.0000 </r>
        <r>  0.0139  0.0914  0.0067  0.0554  0.0000  0.0000  0.0000  0.0000  0.0000 </r>
       </set>
       <set comment="band 15">
        <r>  0.0027  0.0821  0.0354  0.0941  0.0000  0.0000  0.0000  0.0000  0.0000 </r>
        <r>  0.0523  0.0097  0.0438  0.0443  0.0000  0.0000  0.0000  0.0000  0.0000 </r>
        <r>  0.0523  0.0097  0.0438  0.0443  0.0000  0.0000  0.0000  0.0000  0.0000 </r>
        <r>  0.0027  0.0821  0.0354  0.0940  0.0000  0.0000  0.0000  0.0000  0.0000 </r>
       </set>
       <set comment="band 16">
        <r>  0.0523  0.0097  0.0438  0.0443  0.0000  0.0000  0.0000  0.0000  0.0000 </r>
        <r>  0.0027  0.0821  0.0354  0.0941  0.0000  0.0000  0.0000  0.0000  0.0000 </r>
        <r>  0.0027  0.0821  0.0354  0.0940  0.0000  0.0000  0.0000  0.0000  0.0000 </r>
        <r>  0.0523  0.0097  0.0438  0.0443  0.0000  0.0000  0.0000  0.0000  0.0000 </r>
       </set>
      </set>
      <set comment="kpoint 95">
       <set comment="band 1">
        <r>  0.0566  0.0218  0.0141  0.0097  0.0000  0.0000  0.0000  0.0000  0.0000 </r>
        <r>  0.1872  0.0252  0.0092  0.0102  0.0000  0.0000  0.0000  0.0000  0.0000 </r>
        <r>  0.1872  0.0252  0.0092  0.0102  0.0000  0.0000  0.0000  0.0000  0.0000 </r>
        <r>  0.0566  0.0218  0.0141  0.0097  0.0000  0.0000  0.0000  0.0000  0.0000 </r>
       </set>
       <set comment="band 2">
        <r>  0.1872  0.0252  0.0092  0.0102  0.0000  0.0000  0.0000  0.0000  0.0000 </r>
        <r>  0.0566  0.0218  0.0141  0.0097  0.0000  0.0000  0.0000  0.0000  0.0000 </r>
        <r>  0.0566  0.0218  0.0141  0.0097  0.0000  0.0000  0.0000  0.0000  0.0000 </r>
        <r>  0.1872  0.0252  0.0092  0.0102  0.0000  0.0000  0.0000  0.0000  0.0000 </r>
       </set>
       <set comment="band 3">
        <r>  0.0917  0.0139  0.0237  0.0149  0.0000  0.0000  0.0000  0.0000  0.0000 </r>
        <r>  0.0919  0.0596  0.0073  0.0373  0.0000  0.0000  0.0000  0.0000  0.0000 </r>
        <r>  0.0919  0.0596  0.0073  0.0373  0.0000  0.0000  0.0000  0.0000  0.0000 </r>
        <r>  0.0917  0.0139  0.0237  0.0149  0.0000  0.0000  0.0000  0.0000  0.0000 </r>
       </set>
       <set comment="band 4">
        <r>  0.0919  0.0596  0.0073  0.0373  0.0000  0.0000  0.0000  0.0000  0.0000 </r>
        <r>  0.0917  0.0139  0.0237  0.0149  0.0000  0.0000  0.0000  0.0000  0.0000 </r>
        <r>  0.0917  0.0139  0.0237  0.0149  0.0000  0.0000  0.0000  0.0000  0.0000 </r>
        <r>  0.0919  0.0596  0.0073  0.0373  0.0000  0.0000  0.0000  0.0000  0.0000 </r>
       </set>
       <set comment="band 5">
        <r>  0.0070  0.0472  0.0022  0.0585  0.0000  0.0000  0.0000  0.0000  0.0000 </r>
        <r>  0.0048  0.0625  0.0016  0.1036  0.0000  0.0000  0.0000  0.0000  0.0000 </r>
        <r>  0.0048  0.0625  0.0016  0.1036  0.0000  0.0000  0.0000  0.0000  0.0000 </r>
        <r>  0.0070  0.0472  0.0022  0.0585  0.0000  0.0000  0.0000  0.0000  0.0000 </r>
       </set>
       <set comment="band 6">
        <r>  0.0048  0.0625  0.0016  0.1036  0.0000  0.0000  0.0000  0.0000  0.0000 </r>
        <r>  0.0070  0.0472  0.0022  0.0585  0.0000  0.0000  0.0000  0.0000  0.0000 </r>
        <r>  0.0070  0.0472  0.0022  0.0585  0.0000  0.0000  0.0000  0.0000  0.0000 </r>
        <r>  0.0048  0.0625  0.0016  0.1036  0.0000  0.0000  0.0000  0.0000  0.0000 </r>
       </set>
       <set comment="band 7">
        <r>  0.0036  0.0418  0.0002  0.0357  0.0000  0.0000  0.0000  0.0000  0.0000 </r>
        <r>  0.0007  0.0007  0.2884  0.0004  0.0000  0.0000  0.0000  0.0000  0.0000 </r>
        <r>  0.0007  0.0007  0.2884  0.0004  0.0000  0.0000  0.0000  0.0000  0.0000 </r>
        <r>  0.0036  0.0418  0.0002  0.0357  0.0000  0.0000  0.0000  0.0000  0.0000 </r>
       </set>
       <set comment="band 8">
        <r>  0.0007  0.0007  0.2884  0.0004  0.0000  0.0000  0.0000  0.0000  0.0000 </r>
        <r>  0.0036  0.0418  0.0002  0.0357  0.0000  0.0000  0.0000  0.0000  0.0000 </r>
        <r>  0.0036  0.0418  0.0002  0.0357  0.0000  0.0000  0.0000  0.0000  0.0000 </r>
        <r>  0.0007  0.0007  0.2884  0.0004  0.0000  0.0000  0.0000  0.0000  0.0000 </r>
       </set>
       <set comment="band 9">
        <r>  0.0012  0.0012  0.0018  0.0005  0.0000  0.0000  0.0000  0.0000  0.0000 </r>
        <r>  0.1223  0.0082  0.0745  0.0235  0.0000  0.0000  0.0000  0.0000  0.0000 </r>
        <r>  0.1223  0.0082  0.0745  0.0235  0.0000  0.0000  0.0000  0.0000  0.0000 </r>
        <r>  0.0012  0.0012  0.0018  0.0005  0.0000  0.0000  0.0000  0.0000  0.0000 </r>
       </set>
       <set comment="band 10">
        <r>  0.1223  0.0082  0.0745  0.0235  0.0000  0.0000  0.0000  0.0000  0.0000 </r>
        <r>  0.0012  0.0012  0.0018  0.0005  0.0000  0.0000  0.0000  0.0000  0.0000 </r>
        <r>  0.0012  0.0012  0.0018  0.0005  0.0000  0.0000  0.0000  0.0000  0.0000 </r>
        <r>  0.1223  0.0082  0.0745  0.0235  0.0000  0.0000  0.0000  0.0000  0.0000 </r>
       </set>
       <set comment="band 11">
        <r>  0.0153  0.0722  0.0267  0.0859  0.0000  0.0000  0.0000  0.0000  0.0000 </r>
        <r>  0.0003  0.0059  0.0000  0.0045  0.0000  0.0000  0.0000  0.0000  0.0000 </r>
        <r>  0.0003  0.0059  0.0000  0.0045  0.0000  0.0000  0.0000  0.0000  0.0000 </r>
        <r>  0.0153  0.0722  0.0267  0.0859  0.0000  0.0000  0.0000  0.0000  0.0000 </r>
       </set>
       <set comment="band 12">
        <r>  0.0003  0.0059  0.0000  0.0045  0.0000  0.0000  0.0000  0.0000  0.0000 </r>
        <r>  0.0153  0.0722  0.0267  0.0859  0.0000  0.0000  0.0000  0.0000  0.0000 </r>
        <r>  0.0153  0.0722  0.0267  0.0859  0.0000  0.0000  0.0000  0.0000  0.0000 </r>
        <r>  0.0003  0.0059  0.0000  0.0045  0.0000  0.0000  0.0000  0.0000  0.0000 </r>
       </set>
       <set comment="band 13">
        <r>  0.0670  0.0007  0.0587  0.0012  0.0000  0.0000  0.0000  0.0000  0.0000 </r>
        <r>  0.0029  0.0769  0.0003  0.1252  0.0000  0.0000  0.0000  0.0000  0.0000 </r>
        <r>  0.0029  0.0769  0.0003  0.1252  0.0000  0.0000  0.0000  0.0000  0.0000 </r>
        <r>  0.0670  0.0007  0.0587  0.0012  0.0000  0.0000  0.0000  0.0000  0.0000 </r>
       </set>
       <set comment="band 14">
        <r>  0.0029  0.0769  0.0003  0.1252  0.0000  0.0000  0.0000  0.0000  0.0000 </r>
        <r>  0.0670  0.0007  0.0587  0.0012  0.0000  0.0000  0.0000  0.0000  0.0000 </r>
        <r>  0.0670  0.0007  0.0587  0.0012  0.0000  0.0000  0.0000  0.0000  0.0000 </r>
        <r>  0.0029  0.0769  0.0003  0.1252  0.0000  0.0000  0.0000  0.0000  0.0000 </r>
       </set>
       <set comment="band 15">
        <r>  0.0052  0.0905  0.0000  0.0819  0.0000  0.0000  0.0000  0.0000  0.0000 </r>
        <r>  0.0720  0.0119  0.0431  0.0102  0.0000  0.0000  0.0000  0.0000  0.0000 </r>
        <r>  0.0720  0.0119  0.0431  0.0102  0.0000  0.0000  0.0000  0.0000  0.0000 </r>
        <r>  0.0052  0.0905  0.0000  0.0819  0.0000  0.0000  0.0000  0.0000  0.0000 </r>
       </set>
       <set comment="band 16">
        <r>  0.0720  0.0119  0.0431  0.0102  0.0000  0.0000  0.0000  0.0000  0.0000 </r>
        <r>  0.0052  0.0905  0.0000  0.0819  0.0000  0.0000  0.0000  0.0000  0.0000 </r>
        <r>  0.0052  0.0905  0.0000  0.0819  0.0000  0.0000  0.0000  0.0000  0.0000 </r>
        <r>  0.0720  0.0119  0.0431  0.0102  0.0000  0.0000  0.0000  0.0000  0.0000 </r>
       </set>
      </set>
      <set comment="kpoint 96">
       <set comment="band 1">
        <r>  0.0258  0.0190  0.0066  0.0252  0.0000  0.0000  0.0000  0.0000  0.0000 </r>
        <r>  0.2469  0.0078  0.0139  0.0068  0.0000  0.0000  0.0000  0.0000  0.0000 </r>
        <r>  0.2469  0.0078  0.0139  0.0068  0.0000  0.0000  0.0000  0.0000  0.0000 </r>
        <r>  0.0258  0.0190  0.0066  0.0252  0.0000  0.0000  0.0000  0.0000  0.0000 </r>
       </set>
       <set comment="band 2">
        <r>  0.2469  0.0078  0.0139  0.0068  0.0000  0.0000  0.0000  0.0000  0.0000 </r>
        <r>  0.0258  0.0190  0.0066  0.0252  0.0000  0.0000  0.0000  0.0000  0.0000 </r>
        <r>  0.0258  0.0190  0.0066  0.0252  0.0000  0.0000  0.0000  0.0000  0.0000 </r>
        <r>  0.2469  0.0078  0.0139  0.0068  0.0000  0.0000  0.0000  0.0000  0.0000 </r>
       </set>
       <set comment="band 3">
        <r>  0.1258  0.0039  0.0324  0.0106  0.0000  0.0000  0.0000  0.0000  0.0000 </r>
        <r>  0.0346  0.0415  0.0022  0.0741  0.0000  0.0000  0.0000  0.0000  0.0000 </r>
        <r>  0.0346  0.0415  0.0022  0.0741  0.0000  0.0000  0.0000  0.0000  0.0000 </r>
        <r>  0.1258  0.0039  0.0324  0.0106  0.0000  0.0000  0.0000  0.0000  0.0000 </r>
       </set>
       <set comment="band 4">
        <r>  0.0346  0.0415  0.0022  0.0741  0.0000  0.0000  0.0000  0.0000  0.0000 </r>
        <r>  0.1258  0.0039  0.0324  0.0106  0.0000  0.0000  0.0000  0.0000  0.0000 </r>
        <r>  0.1258  0.0039  0.0324  0.0106  0.0000  0.0000  0.0000  0.0000  0.0000 </r>
        <r>  0.0346  0.0415  0.0022  0.0741  0.0000  0.0000  0.0000  0.0000  0.0000 </r>
       </set>
       <set comment="band 5">
        <r>  0.0051  0.0595  0.0014  0.0454  0.0000  0.0000  0.0000  0.0000  0.0000 </r>
        <r>  0.0048  0.0998  0.0009  0.0653  0.0000  0.0000  0.0000  0.0000  0.0000 </r>
        <r>  0.0048  0.0998  0.0009  0.0653  0.0000  0.0000  0.0000  0.0000  0.0000 </r>
        <r>  0.0051  0.0595  0.0014  0.0454  0.0000  0.0000  0.0000  0.0000  0.0000 </r>
       </set>
       <set comment="band 6">
        <r>  0.0048  0.0998  0.0009  0.0653  0.0000  0.0000  0.0000  0.0000  0.0000 </r>
        <r>  0.0051  0.0595  0.0014  0.0454  0.0000  0.0000  0.0000  0.0000  0.0000 </r>
        <r>  0.0051  0.0595  0.0014  0.0454  0.0000  0.0000  0.0000  0.0000  0.0000 </r>
        <r>  0.0048  0.0998  0.0009  0.0653  0.0000  0.0000  0.0000  0.0000  0.0000 </r>
       </set>
       <set comment="band 7">
        <r>  0.0007  0.0381  0.0000  0.0419  0.0000  0.0000  0.0000  0.0000  0.0000 </r>
        <r>  0.0006  0.0002  0.2926  0.0001  0.0000  0.0000  0.0000  0.0000  0.0000 </r>
        <r>  0.0006  0.0002  0.2926  0.0001  0.0000  0.0000  0.0000  0.0000  0.0000 </r>
        <r>  0.0007  0.0381  0.0000  0.0419  0.0000  0.0000  0.0000  0.0000  0.0000 </r>
       </set>
       <set comment="band 8">
        <r>  0.0006  0.0002  0.2926  0.0001  0.0000  0.0000  0.0000  0.0000  0.0000 </r>
        <r>  0.0007  0.0381  0.0000  0.0419  0.0000  0.0000  0.0000  0.0000  0.0000 </r>
        <r>  0.0007  0.0381  0.0000  0.0419  0.0000  0.0000  0.0000  0.0000  0.0000 </r>
        <r>  0.0006  0.0002  0.2926  0.0001  0.0000  0.0000  0.0000  0.0000  0.0000 </r>
       </set>
       <set comment="band 9">
        <r>  0.0001  0.0004  0.0001  0.0010  0.0000  0.0000  0.0000  0.0000  0.0000 </r>
        <r>  0.1393  0.0048  0.0836  0.0083  0.0000  0.0000  0.0000  0.0000  0.0000 </r>
        <r>  0.1393  0.0048  0.0836  0.0083  0.0000  0.0000  0.0000  0.0000  0.0000 </r>
        <r>  0.0001  0.0004  0.0001  0.0010  0.0000  0.0000  0.0000  0.0000  0.0000 </r>
       </set>
       <set comment="band 10">
        <r>  0.1393  0.0048  0.0836  0.0083  0.0000  0.0000  0.0000  0.0000  0.0000 </r>
        <r>  0.0001  0.0004  0.0001  0.0010  0.0000  0.0000  0.0000  0.0000  0.0000 </r>
        <r>  0.0001  0.0004  0.0001  0.0010  0.0000  0.0000  0.0000  0.0000  0.0000 </r>
        <r>  0.1393  0.0048  0.0836  0.0083  0.0000  0.0000  0.0000  0.0000  0.0000 </r>
       </set>
       <set comment="band 11">
        <r>  0.0075  0.0939  0.0132  0.0726  0.0000  0.0000  0.0000  0.0000  0.0000 </r>
        <r>  0.0005  0.0049  0.0001  0.0061  0.0000  0.0000  0.0000  0.0000  0.0000 </r>
        <r>  0.0005  0.0049  0.0001  0.0061  0.0000  0.0000  0.0000  0.0000  0.0000 </r>
        <r>  0.0075  0.0939  0.0132  0.0726  0.0000  0.0000  0.0000  0.0000  0.0000 </r>
       </set>
       <set comment="band 12">
        <r>  0.0005  0.0049  0.0001  0.0061  0.0000  0.0000  0.0000  0.0000  0.0000 </r>
        <r>  0.0075  0.0939  0.0132  0.0726  0.0000  0.0000  0.0000  0.0000  0.0000 </r>
        <r>  0.0075  0.0939  0.0132  0.0726  0.0000  0.0000  0.0000  0.0000  0.0000 </r>
        <r>  0.0005  0.0049  0.0001  0.0061  0.0000  0.0000  0.0000  0.0000  0.0000 </r>
       </set>
       <set comment="band 13">
        <r>  0.0653  0.0015  0.0633  0.0037  0.0000  0.0000  0.0000  0.0000  0.0000 </r>
        <r>  0.0058  0.1193  0.0018  0.0832  0.0000  0.0000  0.0000  0.0000  0.0000 </r>
        <r>  0.0058  0.1193  0.0018  0.0832  0.0000  0.0000  0.0000  0.0000  0.0000 </r>
        <r>  0.0653  0.0015  0.0633  0.0037  0.0000  0.0000  0.0000  0.0000  0.0000 </r>
       </set>
       <set comment="band 14">
        <r>  0.0058  0.1193  0.0018  0.0832  0.0000  0.0000  0.0000  0.0000  0.0000 </r>
        <r>  0.0653  0.0015  0.0633  0.0037  0.0000  0.0000  0.0000  0.0000  0.0000 </r>
        <r>  0.0653  0.0015  0.0633  0.0037  0.0000  0.0000  0.0000  0.0000  0.0000 </r>
        <r>  0.0058  0.1193  0.0018  0.0832  0.0000  0.0000  0.0000  0.0000  0.0000 </r>
       </set>
       <set comment="band 15">
        <r>  0.0699  0.0065  0.0472  0.0180  0.0000  0.0000  0.0000  0.0000  0.0000 </r>
        <r>  0.0005  0.1062  0.0099  0.1096  0.0000  0.0000  0.0000  0.0000  0.0000 </r>
        <r>  0.0005  0.1062  0.0099  0.1096  0.0000  0.0000  0.0000  0.0000  0.0000 </r>
        <r>  0.0699  0.0065  0.0472  0.0180  0.0000  0.0000  0.0000  0.0000  0.0000 </r>
       </set>
       <set comment="band 16">
        <r>  0.0005  0.1062  0.0099  0.1096  0.0000  0.0000  0.0000  0.0000  0.0000 </r>
        <r>  0.0699  0.0065  0.0472  0.0180  0.0000  0.0000  0.0000  0.0000  0.0000 </r>
        <r>  0.0699  0.0065  0.0472  0.0180  0.0000  0.0000  0.0000  0.0000  0.0000 </r>
        <r>  0.0005  0.1062  0.0099  0.1096  0.0000  0.0000  0.0000  0.0000  0.0000 </r>
       </set>
      </set>
     </set>
    </set>
   </array>
  </projected>
 </calculation>
 <structure name="finalpos" >
  <crystal>
   <varray name="basis" >
    <v>       2.43013702      -0.00000000       0.00000000 </v>
    <v>      -1.21506851       2.10456015       0.00000000 </v>
    <v>      -0.00000000      -0.00000000       4.04567742 </v>
   </varray>
   <i name="volume">     20.69108938 </i>
   <varray name="rec_basis" >
    <v>       0.41149943       0.23757933       0.00000000 </v>
    <v>       0.00000000       0.47515867       0.00000000 </v>
    <v>      -0.00000000      -0.00000000       0.24717739 </v>
   </varray>
  </crystal>
  <varray name="positions" >
   <v>       0.33333300       0.66666700       0.93686576 </v>
   <v>       0.66666700       0.33333300       0.43686576 </v>
   <v>       0.66666700       0.33333300       0.06313424 </v>
   <v>       0.33333300       0.66666700       0.56313424 </v>
  </varray>
 </structure>
</modeling>
