unknown system                          
            1
     2.513094    0.000000    0.000000
    -1.256547    2.176403    0.000000
     0.000000    0.000000    4.181402
   C 
   4
Direct configuration=     1
   0.33333300  0.66666700  0.93722800
   0.66666700  0.33333300  0.43722800
   0.66666700  0.33333300  0.06277200
   0.33333300  0.66666700  0.56277200
unknown system                          
            1
     2.506050    0.000000    0.000000
    -1.253025    2.170303    0.000000
     0.000000   -0.000000    4.169734
   C 
   4
Direct configuration=     2
   0.33333300  0.66666700  0.93722985
   0.66666700  0.33333300  0.43722985
   0.66666700  0.33333300  0.06277015
   0.33333300  0.66666700  0.56277015
unknown system                          
            1
     2.484918    0.000000    0.000000
    -1.242459    2.152002    0.000000
     0.000000   -0.000000    4.134730
   C 
   4
Direct configuration=     3
   0.33333300  0.66666700  0.93723543
   0.66666700  0.33333300  0.43723543
   0.66666700  0.33333300  0.06276457
   0.33333300  0.66666700  0.56276457
unknown system                          
            1
     2.442655    0.000000    0.000000
    -1.221327    2.115401    0.000000
     0.000000   -0.000000    4.064723
   C 
   4
Direct configuration=     4
   0.33333300  0.66666700  0.93724668
   0.66666700  0.33333300  0.43724668
   0.66666700  0.33333300  0.06275332
   0.33333300  0.66666700  0.56275332
unknown system                          
            1
     2.430569    0.000000    0.000000
    -1.215284    2.104934    0.000000
     0.000000   -0.000000    4.044703
   C 
   4
Direct configuration=     5
   0.33333300  0.66666700  0.93724996
   0.66666700  0.33333300  0.43724996
   0.66666700  0.33333300  0.06275004
   0.33333300  0.66666700  0.56275004
unknown system                          
            1
     2.430408   -0.000000    0.000000
    -1.215204    2.104794    0.000000
     0.000000   -0.000000    4.045067
   C 
   4
Direct configuration=     6
   0.33333300  0.66666700  0.93710655
   0.66666700  0.33333300  0.43710655
   0.66666700  0.33333300  0.06289345
   0.33333300  0.66666700  0.56289345
unknown system                          
            1
     2.430137   -0.000000    0.000000
    -1.215069    2.104560    0.000000
    -0.000000   -0.000000    4.045677
   C 
   4
Direct configuration=     7
   0.33333300  0.66666700  0.93686576
   0.66666700  0.33333300  0.43686576
   0.66666700  0.33333300  0.06313424
   0.33333300  0.66666700  0.56313424
