   64   64    1    2
  0.5414167E+01  0.7023774E-09  0.7023774E-09  0.7023774E-09  0.1500000E-16
   1.0000000000000000E-004
  CAR 
 unknown system                          
    256      4    208
 
  0.1262379E-14  0.1262379E-14  0.1262379E-14  0.1250000E+00
    1      -11.670353    -11.670352   1.000000   1.000000
    2       -9.311325     -9.311324   1.000000   1.000000
    3       -9.311325     -9.311324   1.000000   1.000000
    4       -9.311325     -9.311324   1.000000   1.000000
    5       -9.311221     -9.311219   1.000000   1.000000
    6       -9.311221     -9.311219   1.000000   1.000000
    7       -9.311221     -9.311219   1.000000   1.000000
    8       -7.047482     -7.047480   1.000000   1.000000
    9       -7.047482     -7.047480   1.000000   1.000000
   10       -7.047482     -7.047480   1.000000   1.000000
   11       -7.047338     -7.047336   1.000000   1.000000
   12       -7.047338     -7.047336   1.000000   1.000000
   13       -7.047338     -7.047336   1.000000   1.000000
   14       -7.047335     -7.047333   1.000000   1.000000
   15       -7.047335     -7.047333   1.000000   1.000000
   16       -7.047335     -7.047333   1.000000   1.000000
   17       -7.047272     -7.047270   1.000000   1.000000
   18       -7.047272     -7.047270   1.000000   1.000000
   19       -7.047272     -7.047270   1.000000   1.000000
   20       -5.624059     -5.624056   1.000000   1.000000
   21       -5.623898     -5.623895   1.000000   1.000000
   22       -5.623877     -5.623874   1.000000   1.000000
   23       -5.623877     -5.623874   1.000000   1.000000
   24       -3.456427     -3.456426   1.000000   1.000000
   25       -3.456427     -3.456426   1.000000   1.000000
   26       -3.456393     -3.456391   1.000000   1.000000
   27       -3.456300     -3.456299   1.000000   1.000000
   28       -2.658082     -2.658079   1.000000   1.000000
   29       -2.657983     -2.657980   1.000000   1.000000
   30       -2.657983     -2.657980   1.000000   1.000000
   31       -2.657972     -2.657969   1.000000   1.000000
   32       -2.657940     -2.657937   1.000000   1.000000
   33       -2.657940     -2.657937   1.000000   1.000000
   34       -1.789825     -1.789821   1.000000   1.000000
   35       -1.789825     -1.789821   1.000000   1.000000
   36       -1.789825     -1.789821   1.000000   1.000000
   37       -1.789749     -1.789746   1.000000   1.000000
   38       -1.789749     -1.789746   1.000000   1.000000
   39       -1.789749     -1.789746   1.000000   1.000000
   40       -1.789732     -1.789729   1.000000   1.000000
   41       -1.789732     -1.789728   1.000000   1.000000
   42       -1.789732     -1.789728   1.000000   1.000000
   43       -1.789690     -1.789686   1.000000   1.000000
   44       -1.789690     -1.789686   1.000000   1.000000
   45       -1.789690     -1.789686   1.000000   1.000000
   46        1.505114      1.505117   1.000000   1.000000
   47        1.505114      1.505117   1.000000   1.000000
   48        1.505114      1.505117   1.000000   1.000000
   49        1.505116      1.505120   1.000000   1.000000
   50        1.505116      1.505120   1.000000   1.000000
   51        1.505116      1.505120   1.000000   1.000000
   52        1.505160      1.505164   1.000000   1.000000
   53        1.505160      1.505164   1.000000   1.000000
   54        1.505160      1.505164   1.000000   1.000000
   55        1.505164      1.505167   1.000000   1.000000
   56        1.505164      1.505167   1.000000   1.000000
   57        1.505164      1.505167   1.000000   1.000000
   58        1.712051      1.712053   1.000000   1.000000
   59        1.712051      1.712053   1.000000   1.000000
   60        1.712051      1.712053   1.000000   1.000000
   61        1.712053      1.712055   1.000000   1.000000
   62        1.712053      1.712055   1.000000   1.000000
   63        1.712053      1.712055   1.000000   1.000000
   64        1.712085      1.712086   1.000000   1.000000
   65        1.712085      1.712086   1.000000   1.000000
   66        1.712085      1.712086   1.000000   1.000000
   67        1.712087      1.712089   1.000000   1.000000
   68        1.712087      1.712089   1.000000   1.000000
   69        1.712087      1.712089   1.000000   1.000000
   70        2.509856      2.509858   1.000000   1.000000
   71        2.509856      2.509858   1.000000   1.000000
   72        2.509856      2.509858   1.000000   1.000000
   73        2.509887      2.509889   1.000000   1.000000
   74        2.509887      2.509889   1.000000   1.000000
   75        2.509887      2.509889   1.000000   1.000000
   76        2.509896      2.509899   1.000000   1.000000
   77        2.509896      2.509899   1.000000   1.000000
   78        2.509896      2.509899   1.000000   1.000000
   79        2.509940      2.509943   1.000000   1.000000
   80        2.509940      2.509943   1.000000   1.000000
   81        2.509940      2.509943   1.000000   1.000000
   82        3.860996      3.861000   1.000000   1.000000
   83        3.860997      3.861000   1.000000   1.000000
   84        3.861018      3.861021   1.000000   1.000000
   85        3.861050      3.861053   1.000000   1.000000
   86        3.861071      3.861074   1.000000   1.000000
   87        3.861071      3.861075   1.000000   1.000000
   88        5.868561      5.868566   1.000000   1.000000
   89        5.868561      5.868566   1.000000   1.000000
   90        5.868561      5.868566   1.000000   1.000000
   91        5.868596      5.868602   1.000000   1.000000
   92        5.868596      5.868602   1.000000   1.000000
   93        5.868596      5.868602   1.000000   1.000000
   94        6.124685      6.124689   1.000000   1.000000
   95        6.124685      6.124689   1.000000   1.000000
   96        6.124685      6.124689   1.000000   1.000000
   97        6.124717      6.124721   1.000000   1.000000
   98        6.124717      6.124721   1.000000   1.000000
   99        6.124717      6.124721   1.000000   1.000000
  100        6.124805      6.124809   1.000000   1.000000
  101        6.124805      6.124809   1.000000   1.000000
  102        6.124805      6.124810   1.000000   1.000000
  103        6.124838      6.124842   1.000000   1.000000
  104        6.124838      6.124842   1.000000   1.000000
  105        6.124838      6.124842   1.000000   1.000000
  106        7.300297      7.300302   1.000000   1.000000
  107        7.300297      7.300302   1.000000   1.000000
  108        7.300297      7.300302   1.000000   1.000000
  109        7.300340      7.300345   1.000000   1.000000
  110        7.300340      7.300345   1.000000   1.000000
  111        7.300340      7.300345   1.000000   1.000000
  112        7.300385      7.300390   1.000000   1.000000
  113        7.300385      7.300390   1.000000   1.000000
  114        7.300385      7.300390   1.000000   1.000000
  115        7.300471      7.300476   1.000000   1.000000
  116        7.300471      7.300476   1.000000   1.000000
  117        7.300471      7.300476   1.000000   1.000000
  118        7.524724      7.524729   1.000000   1.000000
  119        7.524724      7.524729   1.000000   1.000000
  120        7.524791      7.524796   1.000000   1.000000
  121        7.524826      7.524831   1.000000   1.000000
  122        7.524866      7.524872   1.000000   1.000000
  123        7.524866      7.524872   1.000000   1.000000
  124        7.524939      7.524944   1.000000   1.000000
  125        7.524939      7.524944   1.000000   1.000000
  126       10.459296     10.459302   1.000000   1.000000
  127       10.459296     10.459302   1.000000   1.000000
  128       10.459407     10.459413   1.000000   1.000000
  129       15.006855     15.006855   0.000000   0.000000
  130       15.006855     15.006855   0.000000   0.000000
  131       15.006855     15.006855   0.000000   0.000000
  132       15.006919     15.006920   0.000000   0.000000
  133       15.006919     15.006920   0.000000   0.000000
  134       15.006919     15.006920   0.000000   0.000000
  135       15.303549     15.303548   0.000000   0.000000
  136       15.303549     15.303548   0.000000   0.000000
  137       15.303608     15.303607   0.000000   0.000000
  138       15.303615     15.303614   0.000000   0.000000
  139       15.303616     15.303615   0.000000   0.000000
  140       15.303672     15.303671   0.000000   0.000000
  141       16.176285     16.176287   0.000000   0.000000
  142       16.176367     16.176369   0.000000   0.000000
  143       16.176367     16.176369   0.000000   0.000000
  144       18.617872     18.617872   0.000000   0.000000
  145       18.617872     18.617872   0.000000   0.000000
  146       18.617872     18.617872   0.000000   0.000000
  147       18.617942     18.617943   0.000000   0.000000
  148       18.617942     18.617943   0.000000   0.000000
  149       18.617942     18.617943   0.000000   0.000000
  150       18.617960     18.617960   0.000000   0.000000
  151       18.617960     18.617960   0.000000   0.000000
  152       18.617960     18.617960   0.000000   0.000000
  153       18.617996     18.617996   0.000000   0.000000
  154       18.617996     18.617996   0.000000   0.000000
  155       18.617996     18.617996   0.000000   0.000000
  156       19.103093     19.103095   0.000000   0.000000
  157       19.103093     19.103095   0.000000   0.000000
  158       19.103123     19.103124   0.000000   0.000000
  159       19.103175     19.103176   0.000000   0.000000
  160       19.103175     19.103176   0.000000   0.000000
  161       19.103228     19.103229   0.000000   0.000000
  162       19.103228     19.103229   0.000000   0.000000
  163       19.103273     19.103274   0.000000   0.000000
  164       19.926357     19.926359   0.000000   0.000000
  165       19.926410     19.926412   0.000000   0.000000
  166       19.926417     19.926419   0.000000   0.000000
  167       19.926417     19.926419   0.000000   0.000000
  168       20.803835     20.803838   0.000000   0.000000
  169       20.803835     20.803838   0.000000   0.000000
  170       20.803835     20.803838   0.000000   0.000000
  171       20.803837     20.803840   0.000000   0.000000
  172       20.803837     20.803840   0.000000   0.000000
  173       20.803837     20.803840   0.000000   0.000000
  174       20.803887     20.803890   0.000000   0.000000
  175       20.803887     20.803890   0.000000   0.000000
  176       20.803887     20.803891   0.000000   0.000000
  177       20.803894     20.803897   0.000000   0.000000
  178       20.803894     20.803897   0.000000   0.000000
  179       20.803894     20.803897   0.000000   0.000000
  180       20.995612     20.995678   0.000000   0.000000
  181       20.995632     20.995761   0.000000   0.000000
  182       20.995646     20.995821   0.000000   0.000000
  183       20.995662     20.995952   0.000000   0.000000
  184       20.995794     20.996397   0.000000   0.000000
  185       20.996875     20.997086   0.000000   0.000000
  186       21.295991     21.296003   0.000000   0.000000
  187       21.296007     21.296061   0.000000   0.000000
  188       21.296034     21.296089   0.000000   0.000000
  189       21.296042     21.296189   0.000000   0.000000
  190       21.296067     21.296258   0.000000   0.000000
  191       21.296073     21.296292   0.000000   0.000000
  192       21.296102     21.296328   0.000000   0.000000
  193       21.296142     21.296438   0.000000   0.000000
  194       21.296158     21.296593   0.000000   0.000000
  195       21.296180     21.296708   0.000000   0.000000
  196       21.296725     21.297106   0.000000   0.000000
  197       21.298878     21.297329   0.000000   0.000000
  198       22.493417     22.493420   0.000000   0.000000
  199       22.493423     22.493430   0.000000   0.000000
  200       22.493431     22.493437   0.000000   0.000000
  201       22.493440     22.493445   0.000000   0.000000
  202       22.493454     22.493465   0.000000   0.000000
  203       22.493469     22.493501   0.000000   0.000000
  204       22.493505     22.493551   0.000000   0.000000
  205       22.493591     22.500544   0.000000   0.000000
  206       22.494743     22.540159   0.000000   0.000000
  207       22.506197     22.590116   0.000000   0.000000
  208       22.527263     22.649933   0.000000   0.000000
 
  0.5000000E+00  0.1262379E-14  0.1262379E-14  0.3750000E+00
    1      -11.075831    -11.075830   1.000000   1.000000
    2      -11.075831    -11.075830   1.000000   1.000000
    3       -8.735350     -8.735348   1.000000   1.000000
    4       -8.735350     -8.735348   1.000000   1.000000
    5       -8.735350     -8.735348   1.000000   1.000000
    6       -8.735350     -8.735348   1.000000   1.000000
    7       -8.735245     -8.735243   1.000000   1.000000
    8       -8.735245     -8.735243   1.000000   1.000000
    9       -8.735245     -8.735243   1.000000   1.000000
   10       -8.735245     -8.735243   1.000000   1.000000
   11       -6.536520     -6.536518   1.000000   1.000000
   12       -6.536520     -6.536518   1.000000   1.000000
   13       -6.536370     -6.536368   1.000000   1.000000
   14       -6.536370     -6.536368   1.000000   1.000000
   15       -6.536366     -6.536363   1.000000   1.000000
   16       -6.536366     -6.536363   1.000000   1.000000
   17       -6.536313     -6.536311   1.000000   1.000000
   18       -6.536313     -6.536311   1.000000   1.000000
   19       -6.447471     -6.447469   1.000000   1.000000
   20       -6.447471     -6.447469   1.000000   1.000000
   21       -4.442329     -4.442326   1.000000   1.000000
   22       -4.442329     -4.442326   1.000000   1.000000
   23       -4.442329     -4.442326   1.000000   1.000000
   24       -4.442329     -4.442326   1.000000   1.000000
   25       -4.442227     -4.442225   1.000000   1.000000
   26       -4.442227     -4.442225   1.000000   1.000000
   27       -4.442227     -4.442225   1.000000   1.000000
   28       -4.442227     -4.442225   1.000000   1.000000
   29       -2.293352     -2.293349   1.000000   1.000000
   30       -2.293352     -2.293349   1.000000   1.000000
   31       -2.293289     -2.293286   1.000000   1.000000
   32       -2.293289     -2.293286   1.000000   1.000000
   33       -2.293275     -2.293272   1.000000   1.000000
   34       -2.293275     -2.293272   1.000000   1.000000
   35       -2.293241     -2.293238   1.000000   1.000000
   36       -2.293241     -2.293238   1.000000   1.000000
   37       -1.508825     -1.508823   1.000000   1.000000
   38       -1.508825     -1.508823   1.000000   1.000000
   39       -1.508756     -1.508754   1.000000   1.000000
   40       -1.508756     -1.508754   1.000000   1.000000
   41       -1.508736     -1.508734   1.000000   1.000000
   42       -1.508736     -1.508734   1.000000   1.000000
   43       -1.508637     -1.508635   1.000000   1.000000
   44       -1.508637     -1.508635   1.000000   1.000000
   45       -0.226736     -0.226733   1.000000   1.000000
   46       -0.226736     -0.226733   1.000000   1.000000
   47       -0.226736     -0.226733   1.000000   1.000000
   48       -0.226736     -0.226733   1.000000   1.000000
   49       -0.226695     -0.226692   1.000000   1.000000
   50       -0.226695     -0.226692   1.000000   1.000000
   51       -0.226695     -0.226692   1.000000   1.000000
   52       -0.226695     -0.226692   1.000000   1.000000
   53        1.178982      1.178984   1.000000   1.000000
   54        1.178982      1.178984   1.000000   1.000000
   55        1.178982      1.178984   1.000000   1.000000
   56        1.178982      1.178984   1.000000   1.000000
   57        1.179023      1.179025   1.000000   1.000000
   58        1.179023      1.179025   1.000000   1.000000
   59        1.179023      1.179025   1.000000   1.000000
   60        1.179023      1.179025   1.000000   1.000000
   61        1.672996      1.673000   1.000000   1.000000
   62        1.672996      1.673000   1.000000   1.000000
   63        2.789576      2.789579   1.000000   1.000000
   64        2.789576      2.789579   1.000000   1.000000
   65        2.789594      2.789596   1.000000   1.000000
   66        2.789594      2.789596   1.000000   1.000000
   67        2.789609      2.789612   1.000000   1.000000
   68        2.789609      2.789612   1.000000   1.000000
   69        2.789627      2.789629   1.000000   1.000000
   70        2.789627      2.789629   1.000000   1.000000
   71        3.757477      3.757481   1.000000   1.000000
   72        3.757477      3.757481   1.000000   1.000000
   73        3.757477      3.757481   1.000000   1.000000
   74        3.757477      3.757481   1.000000   1.000000
   75        3.757528      3.757532   1.000000   1.000000
   76        3.757528      3.757532   1.000000   1.000000
   77        3.757528      3.757532   1.000000   1.000000
   78        3.757528      3.757532   1.000000   1.000000
   79        4.439771      4.439775   1.000000   1.000000
   80        4.439771      4.439775   1.000000   1.000000
   81        4.439798      4.439802   1.000000   1.000000
   82        4.439798      4.439802   1.000000   1.000000
   83        4.697626      4.697630   1.000000   1.000000
   84        4.697626      4.697630   1.000000   1.000000
   85        4.697626      4.697630   1.000000   1.000000
   86        4.697626      4.697630   1.000000   1.000000
   87        4.697666      4.697669   1.000000   1.000000
   88        4.697666      4.697669   1.000000   1.000000
   89        4.697666      4.697669   1.000000   1.000000
   90        4.697666      4.697669   1.000000   1.000000
   91        4.717893      4.717897   1.000000   1.000000
   92        4.717893      4.717897   1.000000   1.000000
   93        4.717893      4.717897   1.000000   1.000000
   94        4.717893      4.717897   1.000000   1.000000
   95        4.717951      4.717954   1.000000   1.000000
   96        4.717951      4.717954   1.000000   1.000000
   97        4.717951      4.717954   1.000000   1.000000
   98        4.717951      4.717954   1.000000   1.000000
   99        5.689492      5.689497   1.000000   1.000000
  100        5.689492      5.689497   1.000000   1.000000
  101        5.689576      5.689580   1.000000   1.000000
  102        5.689576      5.689580   1.000000   1.000000
  103        5.689598      5.689602   1.000000   1.000000
  104        5.689598      5.689602   1.000000   1.000000
  105        5.689686      5.689690   1.000000   1.000000
  106        5.689686      5.689690   1.000000   1.000000
  107        7.410531      7.410536   1.000000   1.000000
  108        7.410531      7.410536   1.000000   1.000000
  109        7.410577      7.410582   1.000000   1.000000
  110        7.410577      7.410582   1.000000   1.000000
  111        7.410627      7.410632   1.000000   1.000000
  112        7.410627      7.410632   1.000000   1.000000
  113        7.410708      7.410713   1.000000   1.000000
  114        7.410708      7.410713   1.000000   1.000000
  115        7.447430      7.447435   1.000000   1.000000
  116        7.447430      7.447435   1.000000   1.000000
  117        7.447430      7.447435   1.000000   1.000000
  118        7.447430      7.447435   1.000000   1.000000
  119        7.447485      7.447490   1.000000   1.000000
  120        7.447485      7.447490   1.000000   1.000000
  121        7.447485      7.447490   1.000000   1.000000
  122        7.447485      7.447490   1.000000   1.000000
  123        8.636608      8.636613   1.000000   1.000000
  124        8.636608      8.636613   1.000000   1.000000
  125        8.636655      8.636660   1.000000   1.000000
  126        8.636655      8.636660   1.000000   1.000000
  127        9.124244      9.124250   1.000000   1.000000
  128        9.124244      9.124250   1.000000   1.000000
  129       14.680356     14.680355   0.000000   0.000000
  130       14.680356     14.680355   0.000000   0.000000
  131       15.761315     15.761317   0.000000   0.000000
  132       15.761315     15.761317   0.000000   0.000000
  133       17.225335     17.225337   0.000000   0.000000
  134       17.225335     17.225337   0.000000   0.000000
  135       17.225335     17.225337   0.000000   0.000000
  136       17.225335     17.225337   0.000000   0.000000
  137       17.225396     17.225398   0.000000   0.000000
  138       17.225396     17.225398   0.000000   0.000000
  139       17.225396     17.225398   0.000000   0.000000
  140       17.225396     17.225398   0.000000   0.000000
  141       17.302763     17.302761   0.000000   0.000000
  142       17.302763     17.302761   0.000000   0.000000
  143       17.491952     17.491952   0.000000   0.000000
  144       17.491952     17.491952   0.000000   0.000000
  145       17.491996     17.491996   0.000000   0.000000
  146       17.491996     17.491996   0.000000   0.000000
  147       17.492015     17.492015   0.000000   0.000000
  148       17.492015     17.492015   0.000000   0.000000
  149       17.492033     17.492033   0.000000   0.000000
  150       17.492033     17.492033   0.000000   0.000000
  151       18.525698     18.525701   0.000000   0.000000
  152       18.525698     18.525701   0.000000   0.000000
  153       18.525728     18.525731   0.000000   0.000000
  154       18.525728     18.525731   0.000000   0.000000
  155       18.894599     18.894599   0.000000   0.000000
  156       18.894599     18.894599   0.000000   0.000000
  157       18.894666     18.894667   0.000000   0.000000
  158       18.894666     18.894667   0.000000   0.000000
  159       18.894686     18.894687   0.000000   0.000000
  160       18.894686     18.894687   0.000000   0.000000
  161       18.894730     18.894730   0.000000   0.000000
  162       18.894730     18.894730   0.000000   0.000000
  163       19.018562     19.018562   0.000000   0.000000
  164       19.018562     19.018562   0.000000   0.000000
  165       19.018562     19.018562   0.000000   0.000000
  166       19.018562     19.018562   0.000000   0.000000
  167       19.018607     19.018608   0.000000   0.000000
  168       19.018607     19.018608   0.000000   0.000000
  169       19.018607     19.018608   0.000000   0.000000
  170       19.018607     19.018608   0.000000   0.000000
  171       19.884118     19.884120   0.000000   0.000000
  172       19.884118     19.884120   0.000000   0.000000
  173       19.884154     19.884156   0.000000   0.000000
  174       19.884154     19.884156   0.000000   0.000000
  175       19.884181     19.884183   0.000000   0.000000
  176       19.884181     19.884183   0.000000   0.000000
  177       19.884237     19.884238   0.000000   0.000000
  178       19.884237     19.884238   0.000000   0.000000
  179       20.847140     20.847143   0.000000   0.000000
  180       20.847140     20.847143   0.000000   0.000000
  181       20.847141     20.847143   0.000000   0.000000
  182       20.847141     20.847143   0.000000   0.000000
  183       20.847189     20.847191   0.000000   0.000000
  184       20.847189     20.847191   0.000000   0.000000
  185       20.847189     20.847191   0.000000   0.000000
  186       20.847189     20.847191   0.000000   0.000000
  187       21.209134     21.209137   0.000000   0.000000
  188       21.209134     21.209137   0.000000   0.000000
  189       21.209170     21.209172   0.000000   0.000000
  190       21.209170     21.209173   0.000000   0.000000
  191       21.209191     21.209193   0.000000   0.000000
  192       21.209191     21.209194   0.000000   0.000000
  193       21.209236     21.209239   0.000000   0.000000
  194       21.209237     21.209240   0.000000   0.000000
  195       21.590733     21.590736   0.000000   0.000000
  196       21.590737     21.590738   0.000000   0.000000
  197       21.590741     21.590739   0.000000   0.000000
  198       21.590748     21.590760   0.000000   0.000000
  199       21.590765     21.590767   0.000000   0.000000
  200       21.590771     21.590768   0.000000   0.000000
  201       21.590782     21.590773   0.000000   0.000000
  202       21.590787     21.590842   0.000000   0.000000
  203       22.494315     22.494316   0.000000   0.000000
  204       22.494330     22.494329   0.000000   0.000000
  205       22.494348     22.494360   0.000000   0.000000
  206       22.494384     22.494385   0.000000   0.000000
  207       22.494438     22.494446   0.000000   0.000000
  208       22.494489     22.494519   0.000000   0.000000
 
  0.5000000E+00  0.5000000E+00  0.1262379E-14  0.3750000E+00
    1      -10.485060    -10.485059   1.000000   1.000000
    2      -10.485060    -10.485059   1.000000   1.000000
    3      -10.485060    -10.485059   1.000000   1.000000
    4      -10.485060    -10.485059   1.000000   1.000000
    5       -8.167964     -8.167962   1.000000   1.000000
    6       -8.167964     -8.167962   1.000000   1.000000
    7       -8.167963     -8.167961   1.000000   1.000000
    8       -8.167963     -8.167961   1.000000   1.000000
    9       -8.167859     -8.167857   1.000000   1.000000
   10       -8.167859     -8.167857   1.000000   1.000000
   11       -8.167858     -8.167857   1.000000   1.000000
   12       -8.167858     -8.167857   1.000000   1.000000
   13       -5.916127     -5.916125   1.000000   1.000000
   14       -5.916127     -5.916125   1.000000   1.000000
   15       -5.916124     -5.916122   1.000000   1.000000
   16       -5.916124     -5.916122   1.000000   1.000000
   17       -5.916084     -5.916082   1.000000   1.000000
   18       -5.916084     -5.916082   1.000000   1.000000
   19       -5.916082     -5.916079   1.000000   1.000000
   20       -5.916082     -5.916079   1.000000   1.000000
   21       -4.585904     -4.585901   1.000000   1.000000
   22       -4.585904     -4.585901   1.000000   1.000000
   23       -4.585887     -4.585884   1.000000   1.000000
   24       -4.585887     -4.585884   1.000000   1.000000
   25       -4.585813     -4.585810   1.000000   1.000000
   26       -4.585813     -4.585810   1.000000   1.000000
   27       -4.585801     -4.585798   1.000000   1.000000
   28       -4.585801     -4.585798   1.000000   1.000000
   29       -2.814088     -2.814085   1.000000   1.000000
   30       -2.814088     -2.814085   1.000000   1.000000
   31       -2.814058     -2.814054   1.000000   1.000000
   32       -2.814058     -2.814054   1.000000   1.000000
   33       -2.386536     -2.386534   1.000000   1.000000
   34       -2.386536     -2.386534   1.000000   1.000000
   35       -2.386519     -2.386517   1.000000   1.000000
   36       -2.386519     -2.386517   1.000000   1.000000
   37       -2.386485     -2.386484   1.000000   1.000000
   38       -2.386485     -2.386484   1.000000   1.000000
   39       -2.386441     -2.386439   1.000000   1.000000
   40       -2.386441     -2.386439   1.000000   1.000000
   41       -1.601434     -1.601431   1.000000   1.000000
   42       -1.601434     -1.601431   1.000000   1.000000
   43       -1.601398     -1.601395   1.000000   1.000000
   44       -1.601398     -1.601395   1.000000   1.000000
   45        0.673155      0.673157   1.000000   1.000000
   46        0.673155      0.673157   1.000000   1.000000
   47        0.673176      0.673178   1.000000   1.000000
   48        0.673176      0.673178   1.000000   1.000000
   49        1.022886      1.022889   1.000000   1.000000
   50        1.022886      1.022889   1.000000   1.000000
   51        1.022896      1.022899   1.000000   1.000000
   52        1.022896      1.022899   1.000000   1.000000
   53        1.022982      1.022985   1.000000   1.000000
   54        1.022982      1.022985   1.000000   1.000000
   55        1.022999      1.023002   1.000000   1.000000
   56        1.022999      1.023002   1.000000   1.000000
   57        1.236666      1.236670   1.000000   1.000000
   58        1.236666      1.236670   1.000000   1.000000
   59        1.236669      1.236673   1.000000   1.000000
   60        1.236669      1.236673   1.000000   1.000000
   61        1.236704      1.236708   1.000000   1.000000
   62        1.236704      1.236708   1.000000   1.000000
   63        1.236707      1.236711   1.000000   1.000000
   64        1.236707      1.236711   1.000000   1.000000
   65        3.140489      3.140492   1.000000   1.000000
   66        3.140489      3.140492   1.000000   1.000000
   67        3.140490      3.140493   1.000000   1.000000
   68        3.140490      3.140493   1.000000   1.000000
   69        3.140496      3.140499   1.000000   1.000000
   70        3.140496      3.140499   1.000000   1.000000
   71        3.140497      3.140500   1.000000   1.000000
   72        3.140497      3.140500   1.000000   1.000000
   73        3.916812      3.916816   1.000000   1.000000
   74        3.916812      3.916816   1.000000   1.000000
   75        3.916855      3.916858   1.000000   1.000000
   76        3.916855      3.916858   1.000000   1.000000
   77        3.916923      3.916927   1.000000   1.000000
   78        3.916923      3.916927   1.000000   1.000000
   79        3.916964      3.916968   1.000000   1.000000
   80        3.916964      3.916968   1.000000   1.000000
   81        4.218349      4.218352   1.000000   1.000000
   82        4.218349      4.218352   1.000000   1.000000
   83        4.218383      4.218386   1.000000   1.000000
   84        4.218383      4.218386   1.000000   1.000000
   85        4.218442      4.218445   1.000000   1.000000
   86        4.218442      4.218445   1.000000   1.000000
   87        4.218476      4.218480   1.000000   1.000000
   88        4.218476      4.218480   1.000000   1.000000
   89        4.839282      4.839286   1.000000   1.000000
   90        4.839282      4.839286   1.000000   1.000000
   91        4.839312      4.839316   1.000000   1.000000
   92        4.839312      4.839316   1.000000   1.000000
   93        5.534695      5.534698   1.000000   1.000000
   94        5.534695      5.534698   1.000000   1.000000