mesh: [    48,    48,    48 ]
nqpoint: 2600   
reciprocal_lattice:
- [   0.28474720,   0.00000000,   0.00000000 ] # a*
- [   0.00000000,   0.28474720,   0.00000000 ] # b*
- [   0.00000000,   0.00000000,   0.28474720 ] # c*
natom:   8      
lattice:
- [     3.511887000000000,     0.000000000000000,     0.000000000000000 ] # a
- [     0.000000000000000,     3.511887000000000,     0.000000000000000 ] # b
- [     0.000000000000000,     0.000000000000000,     3.511887000000000 ] # c
points:
- symbol: C  # 1
  coordinates: [  0.756696000000000,  0.756696000000000,  0.756696000000000 ]
  mass: 12.010700
- symbol: C  # 2
  coordinates: [  0.006695000000000,  0.506696000000000,  0.006695000000000 ]
  mass: 12.010700
- symbol: C  # 3
  coordinates: [  0.506696000000000,  0.506696000000000,  0.506696000000000 ]
  mass: 12.010700
- symbol: C  # 4
  coordinates: [  0.006695000000000,  0.006695000000000,  0.506696000000000 ]
  mass: 12.010700
- symbol: C  # 5
  coordinates: [  0.506696000000000,  0.006695000000000,  0.006695000000000 ]
  mass: 12.010700
- symbol: C  # 6
  coordinates: [  0.756696000000000,  0.256696000000000,  0.256696000000000 ]
  mass: 12.010700
- symbol: C  # 7
  coordinates: [  0.256696000000000,  0.256696000000000,  0.756696000000000 ]
  mass: 12.010700
- symbol: C  # 8
  coordinates: [  0.256696000000000,  0.756696000000000,  0.256696000000000 ]
  mass: 12.010700

phonon:
- q-position: [    0.0104167,    0.0104167,    0.0104167 ]
  distance_from_gamma:  0.005137465
  weight: 8    
  band:
  - # 1
    frequency:     0.6087462370
  - # 2
    frequency:     0.6087462370
  - # 3
    frequency:     0.9745476730
  - # 4
    frequency:    23.6167679316
  - # 5
    frequency:    23.6167679316
  - # 6
    frequency:    23.6167679316
  - # 7
    frequency:    23.6318010605
  - # 8
    frequency:    23.6318010605
  - # 9
    frequency:    23.6318010605
  - # 10
    frequency:    34.3594589209
  - # 11
    frequency:    34.3594589209
  - # 12
    frequency:    34.3594589209
  - # 13
    frequency:    34.3678265841
  - # 14
    frequency:    34.3678265841
  - # 15
    frequency:    34.3678265841
  - # 16
    frequency:    37.2678627858
  - # 17
    frequency:    37.2678627858
  - # 18
    frequency:    37.2678627858
  - # 19
    frequency:    37.6187578888
  - # 20
    frequency:    37.6187578888
  - # 21
    frequency:    37.6187578888
  - # 22
    frequency:    40.8982781244
  - # 23
    frequency:    40.8982781244
  - # 24
    frequency:    40.9017736366

- q-position: [    0.0312500,    0.0104167,    0.0104167 ]
  distance_from_gamma:  0.009837496
  weight: 24   
  band:
  - # 1
    frequency:     1.1868400642
  - # 2
    frequency:     1.2240582830
  - # 3
    frequency:     1.8134217227
  - # 4
    frequency:    23.5883003427
  - # 5
    frequency:    23.6033368409
  - # 6
    frequency:    23.6281527389
  - # 7
    frequency:    23.6281527389
  - # 8
    frequency:    23.6731711438
  - # 9
    frequency:    23.6731711438
  - # 10
    frequency:    34.3373410968
  - # 11
    frequency:    34.3373410968
  - # 12
    frequency:    34.3624292488
  - # 13
    frequency:    34.3624292488
  - # 14
    frequency:    34.3769182088
  - # 15
    frequency:    34.3857947244
  - # 16
    frequency:    36.8990401989
  - # 17
    frequency:    37.2621248356
  - # 18
    frequency:    37.2621248356
  - # 19
    frequency:    37.6116425115
  - # 20
    frequency:    37.6116425115
  - # 21
    frequency:    37.9511630222
  - # 22
    frequency:    40.8866113489
  - # 23
    frequency:    40.8874113093
  - # 24
    frequency:    40.9048916196

- q-position: [    0.0520833,    0.0104167,    0.0104167 ]
  distance_from_gamma:  0.015412394
  weight: 24   
  band:
  - # 1
    frequency:     1.9063627591
  - # 2
    frequency:     1.9363473964
  - # 3
    frequency:     2.7935440490
  - # 4
    frequency:    23.5314916735
  - # 5
    frequency:    23.5465339580
  - # 6
    frequency:    23.6658072330
  - # 7
    frequency:    23.6658072330
  - # 8
    frequency:    23.7405711040
  - # 9
    frequency:    23.7405711040
  - # 10
    frequency:    34.3013574798
  - # 11
    frequency:    34.3013574798
  - # 12
    frequency:    34.3431775099
  - # 13
    frequency:    34.3431775099
  - # 14
    frequency:    34.4114950377
  - # 15
    frequency:    34.4215464283
  - # 16
    frequency:    36.5118834534
  - # 17
    frequency:    37.2508496098
  - # 18
    frequency:    37.2508496098
  - # 19
    frequency:    37.5976210750
  - # 20
    frequency:    37.5976210750
  - # 21
    frequency:    38.2656749518
  - # 22
    frequency:    40.8633070789
  - # 23
    frequency:    40.8641951110
  - # 24
    frequency:    40.9125800635

- q-position: [    0.0729167,    0.0104167,    0.0104167 ]
  distance_from_gamma:  0.021182310
  weight: 24   
  band:
  - # 1
    frequency:     2.6448102241
  - # 2
    frequency:     2.6674357097
  - # 3
    frequency:     3.8109538884
  - # 4
    frequency:    23.4465881271
  - # 5
    frequency:    23.4616367767
  - # 6
    frequency:    23.7293559686
  - # 7
    frequency:    23.7293559686
  - # 8
    frequency:    23.8334719821
  - # 9
    frequency:    23.8334719821
  - # 10
    frequency:    34.2513202092
  - # 11
    frequency:    34.2513202092
  - # 12
    frequency:    34.3098694329
  - # 13
    frequency:    34.3098694329
  - # 14
    frequency:    34.4623629217
  - # 15
    frequency:    34.4747202730
  - # 16
    frequency:    36.1067550832
  - # 17
    frequency:    37.2344275743
  - # 18
    frequency:    37.2344275743
  - # 19
    frequency:    37.5771038153
  - # 20
    frequency:    37.5771038153
  - # 21
    frequency:    38.5624622055
  - # 22
    frequency:    40.8284239630
  - # 23
    frequency:    40.8293352959
  - # 24
    frequency:    40.9240736326

- q-position: [    0.0937500,    0.0104167,    0.0104167 ]
  distance_from_gamma:  0.027022609
  weight: 24   
  band:
  - # 1
    frequency:     3.3860804858
  - # 2
    frequency:     3.4033194634
  - # 3
    frequency:     4.8409802314
  - # 4
    frequency:    23.3339428837
  - # 5
    frequency:    23.3489958784
  - # 6
    frequency:    23.8182001662
  - # 7
    frequency:    23.8182001662
  - # 8
    frequency:    23.9511310044
  - # 9
    frequency:    23.9511310044
  - # 10
    frequency:    34.1869793136
  - # 11
    frequency:    34.1869793136
  - # 12
    frequency:    34.2622207969
  - # 13
    frequency:    34.2622207969
  - # 14
    frequency:    34.5275706852
  - # 15
    frequency:    34.5447925174
  - # 16
    frequency:    35.6849317374
  - # 17
    frequency:    37.2134176412
  - # 18
    frequency:    37.2134176412
  - # 19
    frequency:    37.5506850469
  - # 20
    frequency:    37.5506850469
  - # 21
    frequency:    38.8417749608
  - # 22
    frequency:    40.7820501886
  - # 23
    frequency:    40.7829701308
  - # 24
    frequency:    40.9391462203

- q-position: [    0.1145833,    0.0104167,    0.0104167 ]
  distance_from_gamma:  0.032895826
  weight: 24   
  band:
  - # 1
    frequency:     4.1261110493
  - # 2
    frequency:     4.1393503114
  - # 3
    frequency:     5.8745727019
  - # 4
    frequency:    23.1939991009
  - # 5
    frequency:    23.2090512284
  - # 6
    frequency:    23.9315243133
  - # 7
    frequency:    23.9315243133
  - # 8
    frequency:    24.0926014616
  - # 9
    frequency:    24.0926014616
  - # 10
    frequency:    34.1080576751
  - # 11
    frequency:    34.1080576751
  - # 12
    frequency:    34.1998898834
  - # 13
    frequency:    34.1998898834
  - # 14
    frequency:    34.6000356813
  - # 15
    frequency:    34.6310967620
  - # 16
    frequency:    35.2526839307
  - # 17
    frequency:    37.1885163528
  - # 18
    frequency:    37.1885163528
  - # 19
    frequency:    37.5191179786
  - # 20
    frequency:    37.5191179786
  - # 21
    frequency:    39.1038922182
  - # 22
    frequency:    40.7243037327
  - # 23
    frequency:    40.7252270011
  - # 24
    frequency:    40.9575561175

- q-position: [    0.1354167,    0.0104167,    0.0104167 ]
  distance_from_gamma:  0.038787009
  weight: 24   
  band:
  - # 1
    frequency:     4.8631153877
  - # 2
    frequency:     4.8732512257
  - # 3
    frequency:     6.9073517579
  - # 4
    frequency:    23.0272706273
  - # 5
    frequency:    23.0423130788
  - # 6
    frequency:    24.0683043864
  - # 7
    frequency:    24.0683043864
  - # 8
    frequency:    24.2567438601
  - # 9
    frequency:    24.2567438601
  - # 10
    frequency:    34.0142926866
  - # 11
    frequency:    34.0142926866
  - # 12
    frequency:    34.1225133122
  - # 13
    frequency:    34.1225133122
  - # 14
    frequency:    34.6057292982
  - # 15
    frequency:    34.7328466823
  - # 16
    frequency:    34.8831203889
  - # 17
    frequency:    37.1605193619
  - # 18
    frequency:    37.1605193619
  - # 19
    frequency:    37.4832817086
  - # 20
    frequency:    37.4832817086
  - # 21
    frequency:    39.3491153423
  - # 22
    frequency:    40.6553326876
  - # 23
    frequency:    40.6562567956
  - # 24
    frequency:    40.9790139579

- q-position: [    0.1562500,    0.0104167,    0.0104167 ]
  distance_from_gamma:  0.044689054
  weight: 24   
  band:
  - # 1
    frequency:     5.5959407385
  - # 2
    frequency:     5.6035669369
  - # 3
    frequency:     7.9367035989
  - # 4
    frequency:    22.8343224233
  - # 5
    frequency:    22.8493425831
  - # 6
    frequency:    24.2273166406
  - # 7
    frequency:    24.2273166406
  - # 8
    frequency:    24.4422372176
  - # 9
    frequency:    24.4422372176
  - # 10
    frequency:    33.9054838954
  - # 11
    frequency:    33.9054838954
  - # 12
    frequency:    34.0297506202
  - # 13
    frequency:    34.0297506202
  - # 14
    frequency:    34.2396267645
  - # 15
    frequency:    34.8491597600
  - # 16
    frequency:    34.8802649792
  - # 17
    frequency:    37.1302779025
  - # 18
    frequency:    37.1302779025
  - # 19
    frequency:    37.4441416862
  - # 20
    frequency:    37.4441416862
  - # 21
    frequency:    39.5777658876
  - # 22
    frequency:    40.5753156514
  - # 23
    frequency:    40.5762391986
  - # 24
    frequency:    41.0031802567

- q-position: [    0.1770833,    0.0104167,    0.0104167 ]
  distance_from_gamma:  0.050598160
  weight: 24   
  band:
  - # 1
    frequency:     6.3236632639
  - # 2
    frequency:     6.3291891113
  - # 3
    frequency:     8.9608014394
  - # 4
    frequency:    22.6157523822
  - # 5
    frequency:    22.6307337961
  - # 6
    frequency:    24.4071455972
  - # 7
    frequency:    24.4071455972
  - # 8
    frequency:    24.6475891435
  - # 9
    frequency:    24.6475891435
  - # 10
    frequency:    33.7503803666
  - # 11
    frequency:    33.7815443079
  - # 12
    frequency:    33.7815443079
  - # 13
    frequency:    33.9213355088
  - # 14
    frequency:    33.9213355088
  - # 15
    frequency:    34.9790802261
  - # 16
    frequency:    34.9944083466
  - # 17
    frequency:    37.0986537864
  - # 18
    frequency:    37.0986537864
  - # 19
    frequency:    37.4027059196
  - # 20
    frequency:    37.4027059196
  - # 21
    frequency:    39.7901846942
  - # 22
    frequency:    40.4844621748
  - # 23
    frequency:    40.4853842826
  - # 24
    frequency:    41.0296670990

- q-position: [    0.1979167,    0.0104167,    0.0104167 ]
  distance_from_gamma:  0.056512113
  weight: 24   
  band:
  - # 1
    frequency:     7.0454591350
  - # 2
    frequency:     7.0491779461
  - # 3
    frequency:     9.9782172830
  - # 4
    frequency:    22.3721757471
  - # 5
    frequency:    22.3870982457
  - # 6
    frequency:    24.6061895160
  - # 7
    frequency:    24.6061895160
  - # 8
    frequency:    24.8711430476
  - # 9
    frequency:    24.8711430476
  - # 10
    frequency:    33.2309627256
  - # 11
    frequency:    33.6425528513
  - # 12
    frequency:    33.6425528513
  - # 13
    frequency:    33.7971310598
  - # 14
    frequency:    33.7971310598
  - # 15
    frequency:    35.1215999137
  - # 16
    frequency:    35.1314869858
  - # 17
    frequency:    37.0664769368
  - # 18
    frequency:    37.0664769368
  - # 19
    frequency:    37.3599801803
  - # 20
    frequency:    37.3599801803
  - # 21
    frequency:    39.9867315534
  - # 22
    frequency:    40.3830132516
  - # 23
    frequency:    40.3839333563
  - # 24
    frequency:    41.0580409651

- q-position: [    0.2187500,    0.0104167,    0.0104167 ]
  distance_from_gamma:  0.062429534
  weight: 24   
  band:
  - # 1
    frequency:     7.7605555140
  - # 2
    frequency:     7.7626850615
  - # 3
    frequency:    10.9877485194
  - # 4
    frequency:    22.1042127788
  - # 5
    frequency:    22.1190527231
  - # 6
    frequency:    24.8226611892
  - # 7
    frequency:    24.8226611892
  - # 8
    frequency:    25.1110804011
  - # 9
    frequency:    25.1110804011
  - # 10
    frequency:    32.6889344332
  - # 11
    frequency:    33.4888061152
  - # 12
    frequency:    33.4888061152
  - # 13
    frequency:    33.6571860982
  - # 14
    frequency:    33.6571860982
  - # 15
    frequency:    35.2756762550
  - # 16
    frequency:    35.2828349363
  - # 17
    frequency:    37.0345092993
  - # 18
    frequency:    37.0345092993
  - # 19
    frequency:    37.3169260731
  - # 20
    frequency:    37.3169260731
  - # 21
    frequency:    40.1677851762
  - # 22
    frequency:    40.2712418391
  - # 23
    frequency:    40.2721596234
  - # 24
    frequency:    41.0878260715

- q-position: [    0.2395833,    0.0104167,    0.0104167 ]
  distance_from_gamma:  0.068349524
  weight: 24   
  band:
  - # 1
    frequency:     8.4682094314
  - # 2
    frequency:     8.4689166349
  - # 3
    frequency:    11.9883332966
  - # 4
    frequency:    21.8124798378
  - # 5
    frequency:    21.8272104518
  - # 6
    frequency:    25.0545812487
  - # 7
    frequency:    25.0545812487
  - # 8
    frequency:    25.3654153378
  - # 9
    frequency:    25.3654153378
  - # 10
    frequency:    32.1258758195
  - # 11
    frequency:    33.3208690631
  - # 12
    frequency:    33.3208690631
  - # 13
    frequency:    33.5017906813
  - # 14
    frequency:    33.5017906813
  - # 15
    frequency:    35.4402471468
  - # 16
    frequency:    35.4457681554
  - # 17
    frequency:    37.0034180776
  - # 18
    frequency:    37.0034180776
  - # 19
    frequency:    37.2744258000
  - # 20
    frequency:    37.2744258000
  - # 21
    frequency:    40.1494533949
  - # 22
    frequency:    40.1503687832
  - # 23
    frequency:    40.3337433269
  - # 24
    frequency:    41.1185080295

- q-position: [    0.2604167,    0.0104167,    0.0104167 ]
  distance_from_gamma:  0.074271467
  weight: 24   
  band:
  - # 1
    frequency:     9.1671144213
  - # 2
    frequency:     9.1676978632
  - # 3
    frequency:    12.9790063644
  - # 4
    frequency:    21.4975836678
  - # 5
    frequency:    21.5121754269
  - # 6
    frequency:    25.2997601907
  - # 7
    frequency:    25.2997601907
  - # 8
    frequency:    25.6319778603
  - # 9
    frequency:    25.6319778603
  - # 10
    frequency:    31.5423126556
  - # 11
    frequency:    33.1396269054
  - # 12
    frequency:    33.1396269054
  - # 13
    frequency:    33.3315306638
  - # 14
    frequency:    33.3315306638
  - # 15
    frequency:    35.6142427824
  - # 16
    frequency:    35.6186719154
  - # 17
    frequency:    36.9737598016
  - # 18
    frequency:    36.9737598016
  - # 19
    frequency:    37.2332566251
  - # 20
    frequency:    37.2332566251
  - # 21
    frequency:    40.0179864131
  - # 22
    frequency:    40.0188996028
  - # 23
    frequency:    40.4850230403
  - # 24
    frequency:    41.1495377178

- q-position: [    0.2812500,    0.0104167,    0.0104167 ]
  distance_from_gamma:  0.080194932
  weight: 24   
  band:
  - # 1
    frequency:     9.8565454456
  - # 2
    frequency:     9.8583128146
  - # 3
    frequency:    13.9588748499
  - # 4
    frequency:    21.1601184345
  - # 5
    frequency:    21.1745394783
  - # 6
    frequency:    25.5557637853
  - # 7
    frequency:    25.5557637853
  - # 8
    frequency:    25.9083802529
  - # 9
    frequency:    25.9083802529
  - # 10
    frequency:    30.9384823726
  - # 11
    frequency:    32.9463436505
  - # 12
    frequency:    32.9463436505
  - # 13
    frequency:    33.1473444656
  - # 14
    frequency:    33.1473444656
  - # 15
    frequency:    35.7965947881
  - # 16
    frequency:    35.8002449990
  - # 17
    frequency:    36.9459751003
  - # 18
    frequency:    36.9459751003
  - # 19
    frequency:    37.1940765988
  - # 20
    frequency:    37.1940765988
  - # 21
    frequency:    39.8772129432
  - # 22
    frequency:    39.8781244614
  - # 23
    frequency:    40.6220608654
  - # 24
    frequency:    41.1803352985

- q-position: [    0.3020833,    0.0104167,    0.0104167 ]
  distance_from_gamma:  0.086119603
  weight: 24   
  band:
  - # 1
    frequency:    10.5364961989
  - # 2
    frequency:    10.5393588399
  - # 3
    frequency:    14.9271044714
  - # 4
    frequency:    20.8006649592
  - # 5
    frequency:    20.8148815054
  - # 6
    frequency:    25.8198541531
  - # 7
    frequency:    25.8198541531
  - # 8
    frequency:    26.1919586130
  - # 9
    frequency:    26.1919586130
  - # 10
    frequency:    30.3145302453
  - # 11
    frequency:    32.7427369125
  - # 12
    frequency:    32.7427369125
  - # 13
    frequency:    32.9505895102
  - # 14
    frequency:    32.9505895102
  - # 15
    frequency:    35.9862431244
  - # 16
    frequency:    35.9893117047
  - # 17
    frequency:    36.9203926678
  - # 18
    frequency:    36.9203926678
  - # 19
    frequency:    37.1574213941
  - # 20
    frequency:    37.1574213941
  - # 21
    frequency:    39.7275390758
  - # 22
    frequency:    39.7284498543
  - # 23
    frequency:    40.7453130921
  - # 24
    frequency:    41.2102943129

- q-position: [    0.3229167,    0.0104167,    0.0104167 ]
  distance_from_gamma:  0.092045249
  weight: 24   
  band:
  - # 1
    frequency:    11.2062693075
  - # 2
    frequency:    11.2101518242
  - # 3
    frequency:    15.8829114866
  - # 4
    frequency:    20.4197915703
  - # 5
    frequency:    20.4337683085
  - # 6
    frequency:    26.0888952017
  - # 7
    frequency:    26.0888952017
  - # 8
    frequency:    26.4796771249
  - # 9
    frequency:    26.4796771249
  - # 10
    frequency:    29.6705760185
  - # 11
    frequency:    32.5310834305
  - # 12
    frequency:    32.5310834305
  - # 13
    frequency:    32.7431313728
  - # 14
    frequency:    32.7431313728
  - # 15
    frequency:    36.1821412343
  - # 16
    frequency:    36.1847616638
  - # 17
    frequency:    36.8972400465
  - # 18
    frequency:    36.8972400465
  - # 19
    frequency:    37.1237105940
  - # 20
    frequency:    37.1237105940
  - # 21
    frequency:    39.5694053750
  - # 22
    frequency:    39.5703168436
  - # 23
    frequency:    40.8552559241
  - # 24
    frequency:    41.2387858011

- q-position: [    0.3437500,    0.0104167,    0.0104167 ]
  distance_from_gamma:  0.097971692
  weight: 24   
  band:
  - # 1
    frequency:    11.8651816143
  - # 2
    frequency:    11.8700184513
  - # 3
    frequency:    16.8255579097
  - # 4
    frequency:    20.0180560447
  - # 5
    frequency:    20.0317564970
  - # 6
    frequency:    26.3592060884
  - # 7
    frequency:    26.3592060884
  - # 8
    frequency:    26.7679761831
  - # 9
    frequency:    26.7679761831
  - # 10
    frequency:    29.0067413395
  - # 11
    frequency:    32.3143754804
  - # 12
    frequency:    32.3143754804
  - # 13
    frequency:    32.5274759044
  - # 14
    frequency:    32.5274759044
  - # 15
    frequency:    36.3832598876
  - # 16
    frequency:    36.3855275380
  - # 17
    frequency:    36.8766586235
  - # 18
    frequency:    36.8766586235
  - # 19
    frequency:    37.0932607904
  - # 20
    frequency:    37.0932607904
  - # 21
    frequency:    39.4032872428
  - # 22
    frequency:    39.4042014390
  - # 23
    frequency:    40.9523855673
  - # 24
    frequency:    41.2651623937

- q-position: [    0.3645833,    0.0104167,    0.0104167 ]
  distance_from_gamma:  0.103898796
  weight: 24   
  band:
  - # 1
    frequency:    12.5125630921
  - # 2
    frequency:    12.5182960484
  - # 3
    frequency:    17.7543486365
  - # 4
    frequency:    19.5960081917
  - # 5
    frequency:    19.6093950277
  - # 6
    frequency:    26.6263405230
  - # 7
    frequency:    26.6263405230
  - # 8
    frequency:    27.0525365471
  - # 9
    frequency:    27.0525365471
  - # 10
    frequency:    28.3231628763
  - # 11
    frequency:    32.0965539050
  - # 12
    frequency:    32.0965539050
  - # 13
    frequency:    32.3069740287
  - # 14
    frequency:    32.3069740287
  - # 15
    frequency:    36.5885900956
  - # 16
    frequency:    36.5905760851
  - # 17
    frequency:    36.8587205119
  - # 18
    frequency:    36.8587205119
  - # 19
    frequency:    37.0663025184
  - # 20
    frequency:    37.0663025184
  - # 21
    frequency:    39.2296951972
  - # 22
    frequency:    39.2306148935
  - # 23
    frequency:    41.0372182038
  - # 24
    frequency:    41.2887623259

- q-position: [    0.3854167,    0.0104167,    0.0104167 ]
  distance_from_gamma:  0.109826454
  weight: 24   
  band:
  - # 1
    frequency:    13.1477562469
  - # 2
    frequency:    13.1543326326
  - # 3
    frequency:    18.6686296982
  - # 4
    frequency:    19.1541927275
  - # 5
    frequency:    19.1672280279
  - # 6
    frequency:    26.8847668143
  - # 7
    frequency:    26.8847668143
  - # 8
    frequency:    27.3279229415
  - # 9
    frequency:    27.3279229415
  - # 10
    frequency:    27.6199994391
  - # 11
    frequency:    31.8828434073
  - # 12
    frequency:    31.8828434073
  - # 13
    frequency:    32.0861399851
  - # 14
    frequency:    32.0861399851
  - # 15
    frequency:    36.7971453942
  - # 16
    frequency:    36.7989045521
  - # 17
    frequency:    36.8434455661
  - # 18
    frequency:    36.8434455661
  - # 19
    frequency:    37.0429982759
  - # 20
    frequency:    37.0429982759
  - # 21
    frequency:    39.0491750488
  - # 22
    frequency:    39.0501038979
  - # 23
    frequency:    41.1102898257
  - # 24
    frequency:    41.3089133333

- q-position: [    0.4062500,    0.0104167,    0.0104167 ]
  distance_from_gamma:  0.115754580
  weight: 24   
  band:
  - # 1
    frequency:    13.7701158019
  - # 2
    frequency:    13.7774870501
  - # 3
    frequency:    18.6931521788
  - # 4
    frequency:    18.7057976415
  - # 5
    frequency:    19.5677871767
  - # 6
    frequency:    26.8974363057
  - # 7
    frequency:    27.1274367772
  - # 8
    frequency:    27.1274367772
  - # 9
    frequency:    27.5870743991
  - # 10
    frequency:    27.5870743991
  - # 11
    frequency:    31.6801909260
  - # 12
    frequency:    31.6801909260
  - # 13
    frequency:    31.8711303640
  - # 14
    frequency:    31.8711303640
  - # 15
    frequency:    36.8308174207
  - # 16
    frequency:    36.8308174207
  - # 17
    frequency:    37.0079637103
  - # 18
    frequency:    37.0095394015
  - # 19
    frequency:    37.0234594613
  - # 20
    frequency:    37.0234594613
  - # 21
    frequency:    38.8623079626
  - # 22
    frequency:    38.8632506627
  - # 23
    frequency:    41.1721559026
  - # 24
    frequency:    41.3249363886

- q-position: [    0.4270833,    0.0104167,    0.0104167 ]
  distance_from_gamma:  0.121683107
  weight: 24   
  band:
  - # 1
    frequency:    14.3790085242
  - # 2
    frequency:    14.3871291301
  - # 3
    frequency:    18.2134296350
  - # 4
    frequency:    18.2256467219
  - # 5
    frequency:    20.4512464966
  - # 6
    frequency:    26.1556881125
  - # 7
    frequency:    27.3452971267
  - # 8
    frequency:    27.3452971267
  - # 9
    frequency:    27.8206663359
  - # 10
    frequency:    27.8206663359
  - # 11
    frequency:    31.4977044556
  - # 12
    frequency:    31.4977044556
  - # 13
    frequency:    31.6704103246
  - # 14
    frequency:    31.6704103246
  - # 15
    frequency:    36.8207979729
  - # 16
    frequency:    36.8207979729
  - # 17
    frequency:    37.0077607883
  - # 18
    frequency:    37.0077607883
  - # 19
    frequency:    37.2201089591
  - # 20
    frequency:    37.2215361396
  - # 21
    frequency:    38.6697103928
  - # 22
    frequency:    38.6706728757
  - # 23
    frequency:    41.2233908612
  - # 24
    frequency:    41.3361492477

- q-position: [    0.4479167,    0.0104167,    0.0104167 ]
  distance_from_gamma:  0.127611979
  weight: 24   
  band:
  - # 1
    frequency:    14.9738130946
  - # 2
    frequency:    14.9826397991
  - # 3
    frequency:    17.7155712361
  - # 4
    frequency:    17.7273212577
  - # 5
    frequency:    21.3184719122
  - # 6
    frequency:    25.3950009451
  - # 7
    frequency:    27.5269878998
  - # 8
    frequency:    27.5269878998
  - # 9
    frequency:    28.0165810202
  - # 10
    frequency:    28.0165810202
  - # 11
    frequency:    31.3466917798
  - # 12
    frequency:    31.3466917798
  - # 13
    frequency:    31.4955276410
  - # 14
    frequency:    31.4955276410
  - # 15
    frequency:    36.8133400516
  - # 16
    frequency:    36.8133400516
  - # 17
    frequency:    36.9959514644
  - # 18
    frequency:    36.9959514644
  - # 19
    frequency:    37.4326724654
  - # 20
    frequency:    37.4339796961
  - # 21
    frequency:    38.4720338818
  - # 22
    frequency:    38.4730235282
  - # 23
    frequency:    41.2645873549
  - # 24
    frequency:    41.3418697769

- q-position: [    0.4687500,    0.0104167,    0.0104167 ]
  distance_from_gamma:  0.133541149
  weight: 24   
  band:
  - # 1
    frequency:    15.5539199465
  - # 2
    frequency:    15.5634111035
  - # 3
    frequency:    17.2001283339
  - # 4
    frequency:    17.2113724703
  - # 5
    frequency:    22.1689660730
  - # 6
    frequency:    24.6156539386
  - # 7
    frequency:    27.6593468110
  - # 8
    frequency:    27.6593468110
  - # 9
    frequency:    28.1602159698
  - # 10
    frequency:    28.1602159698
  - # 11
    frequency:    31.2392997472
  - # 12
    frequency:    31.2392997472
  - # 13
    frequency:    31.3616460767
  - # 14
    frequency:    31.3616460767
  - # 15
    frequency:    36.8083981185
  - # 16
    frequency:    36.8083981185
  - # 17
    frequency:    36.9880630526
  - # 18
    frequency:    36.9880630526
  - # 19
    frequency:    37.6447742608
  - # 20
    frequency:    37.6459850849
  - # 21
    frequency:    38.2699647186
  - # 22
    frequency:    38.2709906072
  - # 23
    frequency:    41.2963553051
  - # 24
    frequency:    41.3414190392

- q-position: [    0.4895833,    0.0104167,    0.0104167 ]
  distance_from_gamma:  0.139470579
  weight: 24   
  band:
  - # 1
    frequency:    16.1187310094
  - # 2
    frequency:    16.1288460988
  - # 3
    frequency:    16.6676593037
  - # 4
    frequency:    16.6783585594
  - # 5
    frequency:    23.0022695899
  - # 6
    frequency:    23.8179605497
  - # 7
    frequency:    27.7296365285
  - # 8
    frequency:    27.7296365285
  - # 9
    frequency:    28.2369000964
  - # 10
    frequency:    28.2369000964
  - # 11
    frequency:    31.1845140417
  - # 12
    frequency:    31.1845140417
  - # 13
    frequency:    31.2868914372
  - # 14
    frequency:    31.2868914372
  - # 15
    frequency:    36.8059367796
  - # 16
    frequency:    36.8059367796
  - # 17
    frequency:    36.9841144153
  - # 18
    frequency:    36.9841144153
  - # 19
    frequency:    37.8555642790
  - # 20
    frequency:    37.8566981997
  - # 21
    frequency:    38.0642234546
  - # 22
    frequency:    38.0652966543
  - # 23
    frequency:    41.3193206980
  - # 24
    frequency:    41.3341241223

- q-position: [    0.0312500,    0.0312500,    0.0104167 ]
  distance_from_gamma:  0.012929003
  weight: 24   
  band:
  - # 1
    frequency:     1.4838388494
  - # 2
    frequency:     1.6130930414
  - # 3
    frequency:     2.4260730565
  - # 4
    frequency:    23.5996141406
  - # 5
    frequency:    23.5996141406
  - # 6
    frequency:    23.6094269223
  - # 7
    frequency:    23.6446656189
  - # 8
    frequency:    23.6446656189
  - # 9
    frequency:    23.7442233530
  - # 10
    frequency:    34.2994264270
  - # 11
    frequency:    34.3527344423
  - # 12
    frequency:    34.3527344423
  - # 13
    frequency:    34.3737701173
  - # 14
    frequency:    34.3805576690
  - # 15
    frequency:    34.3805576690
  - # 16
    frequency:    36.8986758515
  - # 17
    frequency:    36.8986758515
  - # 18
    frequency:    37.2479729586
  - # 19
    frequency:    37.6120788886
  - # 20
    frequency:    37.9407773016
  - # 21
    frequency:    37.9407773016
  - # 22
    frequency:    40.8753009238
  - # 23
    frequency:    40.8812143317
  - # 24
    frequency:    40.9030277671

- q-position: [    0.0520833,    0.0312500,    0.0104167 ]
  distance_from_gamma:  0.017547783
  weight: 48   
  band:
  - # 1
    frequency:     2.0489926156
  - # 2
    frequency:     2.2031194087
  - # 3
    frequency:     3.2571862217
  - # 4
    frequency:    23.5426661538
  - # 5
    frequency:    23.5877815155
  - # 6
    frequency:    23.6170105426
  - # 7
    frequency:    23.6371006319
  - # 8
    frequency:    23.7120074734
  - # 9
    frequency:    23.8408456741
  - # 10
    frequency:    34.2486497853
  - # 11
    frequency:    34.3119371254
  - # 12
    frequency:    34.3624559614
  - # 13
    frequency:    34.3711132632
  - # 14
    frequency:    34.3826335702
  - # 15
    frequency:    34.4165866640
  - # 16
    frequency:    36.5184507944
  - # 17
    frequency:    36.8979885018
  - # 18
    frequency:    37.2210989093
  - # 19
    frequency:    37.6120117923
  - # 20
    frequency:    37.9202279070
  - # 21
    frequency:    38.2531499967
  - # 22
    frequency:    40.8522022583
  - # 23
    frequency:    40.8606181595
  - # 24
    frequency:    40.9079791347

- q-position: [    0.0729167,    0.0312500,    0.0104167 ]
  distance_from_gamma:  0.022783175
  weight: 48   
  band: