    8    8  100    2
  0.5414167E+01  0.3511887E-09  0.3511887E-09  0.3511887E-09  0.1500000E-16
   1.0000000000000000E-004
  CAR 
 unknown system                          
     32     35     28
 
  0.3742002E-15  0.3742002E-15  0.3742002E-15  0.1953125E-02
    1      -11.566400    -11.566399   1.000000   1.000000
    2       -1.983363     -1.983363   1.000000   1.000000
    3       -1.983301     -1.983302   1.000000   1.000000
    4       -1.983301     -1.983301   1.000000   1.000000
    5       -1.983294     -1.983295   1.000000   1.000000
    6       -1.983230     -1.983231   1.000000   1.000000
    7       -1.983230     -1.983230   1.000000   1.000000
    8        4.633701      4.633692   1.000000   1.000000
    9        4.633702      4.633692   1.000000   1.000000
   10        4.633722      4.633713   1.000000   1.000000
   11        4.633755      4.633746   1.000000   1.000000
   12        4.633776      4.633766   1.000000   1.000000
   13        4.633776      4.633767   1.000000   1.000000
   14       11.786197     11.786185   1.000000   1.000000
   15       11.786197     11.786185   1.000000   1.000000
   16       11.786311     11.786299   1.000000   1.000000
   17       16.809392     16.809392   0.000000   0.000000
   18       16.809393     16.809392   0.000000   0.000000
   19       16.809408     16.809407   0.000000   0.000000
   20       16.809420     16.809420   0.000000   0.000000
   21       16.809420     16.809420   0.000000   0.000000
   22       16.809517     16.809517   0.000000   0.000000
   23       17.743105     17.743092   0.000000   0.000000
   24       17.743191     17.743178   0.000000   0.000000
   25       17.743191     17.743178   0.000000   0.000000
   26       28.272905     28.272917   0.000000   0.000000
   27       30.767193     30.767152   0.000000   0.000000
   28       30.767200     30.767176   0.000000   0.000000
 
  0.1250000E+00  0.3742002E-15  0.3742002E-15  0.1171875E-01
    1      -11.408745    -11.408744   1.000000   1.000000
    2       -4.109649     -4.109649   1.000000   1.000000
    3       -1.872281     -1.872281   1.000000   1.000000
    4       -1.872255     -1.872256   1.000000   1.000000
    5       -1.872243     -1.872244   1.000000   1.000000
    6       -1.872182     -1.872183   1.000000   1.000000
    7        0.295679      0.295677   1.000000   1.000000
    8        4.283372      4.283363   1.000000   1.000000
    9        4.283398      4.283389   1.000000   1.000000
   10        4.283409      4.283400   1.000000   1.000000
   11        4.283434      4.283425   1.000000   1.000000
   12        4.790032      4.790022   1.000000   1.000000
   13        4.790057      4.790048   1.000000   1.000000
   14       11.135315     11.135303   1.000000   1.000000
   15       11.135378     11.135366   1.000000   1.000000
   16       11.437351     11.437340   1.000000   1.000000
   17       16.361209     16.361208   0.000000   0.000000
   18       17.449385     17.449384   0.000000   0.000000
   19       17.449398     17.449397   0.000000   0.000000
   20       17.449414     17.449413   0.000000   0.000000
   21       17.449471     17.449470   0.000000   0.000000
   22       17.613353     17.613353   0.000000   0.000000
   23       17.635450     17.635438   0.000000   0.000000
   24       18.543018     18.543005   0.000000   0.000000
   25       18.543063     18.543050   0.000000   0.000000
   26       28.260867     28.260877   0.000000   0.000000
   27       30.190272     30.190264   0.000000   0.000000
   28       30.190394     30.190439   0.000000   0.000000
 
  0.2500000E+00  0.3742002E-15  0.3742002E-15  0.1171875E-01
    1      -10.936879    -10.936877   1.000000   1.000000
    2       -6.022945     -6.022945   1.000000   1.000000
    3       -1.564020     -1.564021   1.000000   1.000000
    4       -1.563992     -1.563993   1.000000   1.000000
    5       -1.563979     -1.563980   1.000000   1.000000
    6       -1.563913     -1.563914   1.000000   1.000000
    7        2.642495      2.642492   1.000000   1.000000
    8        3.463923      3.463915   1.000000   1.000000
    9        3.463941      3.463933   1.000000   1.000000
   10        3.463956      3.463948   1.000000   1.000000
   11        3.463973      3.463965   1.000000   1.000000
   12        5.257460      5.257450   1.000000   1.000000
   13        5.257487      5.257477   1.000000   1.000000
   14        9.785580      9.785569   1.000000   1.000000
   15        9.785627      9.785616   1.000000   1.000000
   16       10.449513     10.449503   1.000000   1.000000
   17       16.210507     16.210505   0.000000   0.000000
   18       17.328649     17.328638   0.000000   0.000000
   19       18.847699     18.847699   0.000000   0.000000
   20       19.136799     19.136796   0.000000   0.000000
   21       19.136811     19.136807   0.000000   0.000000
   22       19.136834     19.136831   0.000000   0.000000
   23       19.136884     19.136880   0.000000   0.000000
   24       20.319654     20.319640   0.000000   0.000000
   25       20.319685     20.319671   0.000000   0.000000
   26       27.557935     27.557940   0.000000   0.000000
   27       28.735176     28.735155   0.000000   0.000000
   28       28.735205     28.735184   0.000000   0.000000
 
  0.3750000E+00  0.3742002E-15  0.3742002E-15  0.1171875E-01
    1      -10.153970    -10.153968   1.000000   1.000000
    2       -7.683717     -7.683716   1.000000   1.000000
    3       -1.165642     -1.165643   1.000000   1.000000
    4       -1.165610     -1.165610   1.000000   1.000000
    5       -1.165595     -1.165595   1.000000   1.000000
    6       -1.165519     -1.165520   1.000000   1.000000
    7        2.622090      2.622082   1.000000   1.000000
    8        2.622098      2.622090   1.000000   1.000000
    9        2.622122      2.622115   1.000000   1.000000
   10        2.622129      2.622121   1.000000   1.000000
   11        4.947857      4.947853   1.000000   1.000000
   12        6.025369      6.025359   1.000000   1.000000
   13        6.025398      6.025388   1.000000   1.000000
   14        8.356141      8.356130   1.000000   1.000000
   15        8.356178      8.356168   1.000000   1.000000
   16        8.960193      8.960185   1.000000   1.000000
   17       16.299910     16.299906   0.000000   0.000000
   18       16.937917     16.937909   0.000000   0.000000
   19       20.577963     20.577962   0.000000   0.000000
   20       21.382199     21.382193   0.000000   0.000000
   21       21.382208     21.382202   0.000000   0.000000
   22       21.382247     21.382240   0.000000   0.000000
   23       21.382290     21.382284   0.000000   0.000000
   24       22.444158     22.444142   0.000000   0.000000
   25       22.444182     22.444166   0.000000   0.000000
   26       25.396903     25.396903   0.000000   0.000000
   27       26.795449     26.795430   0.000000   0.000000
   28       26.795474     26.795455   0.000000   0.000000
 
  0.5000000E+00  0.3742002E-15  0.3742002E-15  0.5859375E-02
    1       -9.066247     -9.066246   1.000000   1.000000
    2       -9.066141     -9.066140   1.000000   1.000000
    3       -0.952443     -0.952443   1.000000   1.000000
    4       -0.952407     -0.952407   1.000000   1.000000
    5       -0.952390     -0.952390   1.000000   1.000000
    6       -0.952307     -0.952307   1.000000   1.000000
    7        2.240841      2.240833   1.000000   1.000000
    8        2.240842      2.240834   1.000000   1.000000
    9        2.240875      2.240867   1.000000   1.000000
   10        2.240876      2.240868   1.000000   1.000000
   11        7.071027      7.071017   1.000000   1.000000
   12        7.071059      7.071049   1.000000   1.000000
   13        7.071151      7.071141   1.000000   1.000000
   14        7.071183      7.071173   1.000000   1.000000
   15        7.089784      7.089779   1.000000   1.000000
   16        7.089817      7.089811   1.000000   1.000000
   17       16.563710     16.563705   0.000000   0.000000
   18       16.563774     16.563769   0.000000   0.000000
   19       22.817390     22.817390   0.000000   0.000000
   20       22.817418     22.817418   0.000000   0.000000
   21       23.009388     23.009378   0.000000   0.000000
   22       23.009395     23.009385   0.000000   0.000000
   23       23.009466     23.009456   0.000000   0.000000
   24       23.009507     23.009497   0.000000   0.000000
   25       24.640548     24.640531   0.000000   0.000000
   26       24.640571     24.640554   0.000000   0.000000
   27       24.640575     24.640558   0.000000   0.000000
   28       24.640598     24.640580   0.000000   0.000000
 
  0.1250000E+00  0.1250000E+00  0.3742002E-15  0.2343750E-01
    1      -11.251299    -11.251298   1.000000   1.000000
    2       -3.975923     -3.975923   1.000000   1.000000
    3       -3.975882     -3.975882   1.000000   1.000000
    4       -1.835752     -1.835752   1.000000   1.000000
    5       -1.706088     -1.706089   1.000000   1.000000
    6        0.354254      0.354252   1.000000   1.000000
    7        0.354288      0.354286   1.000000   1.000000
    8        3.181017      3.181009   1.000000   1.000000
    9        4.404956      4.404947   1.000000   1.000000
   10        4.404970      4.404961   1.000000   1.000000
   11        4.505391      4.505382   1.000000   1.000000
   12        4.505442      4.505433   1.000000   1.000000
   13        4.904429      4.904420   1.000000   1.000000
   14       10.217317     10.217306   1.000000   1.000000
   15       10.536945     10.536934   1.000000   1.000000
   16       11.587614     11.587602   1.000000   1.000000
   17       17.020955     17.020953   0.000000   0.000000
   18       17.020976     17.020974   0.000000   0.000000
   19       17.055755     17.055754   0.000000   0.000000
   20       18.075758     18.075745   0.000000   0.000000
   21       18.226199     18.226198   0.000000   0.000000
   22       18.226250     18.226249   0.000000   0.000000
   23       18.747928     18.747916   0.000000   0.000000
   24       18.928732     18.928729   0.000000   0.000000
   25       19.070609     19.070595   0.000000   0.000000
   26       28.304405     28.304413   0.000000   0.000000
   27       29.607140     29.607132   0.000000   0.000000
   28       29.607187     29.607174   0.000000   0.000000
 
  0.2500000E+00  0.1250000E+00  0.3742002E-15  0.4687500E-01
    1      -10.780008    -10.780006   1.000000   1.000000
    2       -5.878273     -5.878273   1.000000   1.000000
    3       -3.584671     -3.584671   1.000000   1.000000
    4       -1.697300     -1.697299   1.000000   1.000000
    5       -1.321356     -1.321358   1.000000   1.000000
    6        0.458462      0.458461   1.000000   1.000000
    7        2.047096      2.047089   1.000000   1.000000
    8        2.558852      2.558849   1.000000   1.000000
    9        3.488377      3.488369   1.000000   1.000000
   10        3.900506      3.900497   1.000000   1.000000
   11        4.826344      4.826335   1.000000   1.000000
   12        4.848240      4.848231   1.000000   1.000000
   13        5.127329      5.127320   1.000000   1.000000
   14        8.825326      8.825317   1.000000   1.000000
   15        9.254905      9.254894   1.000000   1.000000
   16       10.953555     10.953543   1.000000   1.000000
   17       16.881762     16.881759   0.000000   0.000000
   18       17.923298     17.923296   0.000000   0.000000
   19       17.964775     17.964763   0.000000   0.000000
   20       18.754168     18.754164   0.000000   0.000000
   21       19.418842     19.418841   0.000000   0.000000
   22       19.832420     19.832417   0.000000   0.000000
   23       20.309246     20.309233   0.000000   0.000000
   24       20.425392     20.425378   0.000000   0.000000
   25       21.096281     21.096276   0.000000   0.000000
   26       27.780314     27.780318   0.000000   0.000000
   27       28.022525     28.022509   0.000000   0.000000
   28       28.073230     28.073211   0.000000   0.000000
 
  0.3750000E+00  0.1250000E+00  0.3742002E-15  0.4687500E-01
    1       -9.998252     -9.998251   1.000000   1.000000
    2       -7.533239     -7.533239   1.000000   1.000000
    3       -2.976373     -2.976373   1.000000   1.000000
    4       -1.749027     -1.749026   1.000000   1.000000
    5       -0.751877     -0.751878   1.000000   1.000000
    6        0.367083      0.367082   1.000000   1.000000
    7        1.403858      1.403850   1.000000   1.000000
    8        2.449024      2.449017   1.000000   1.000000
    9        3.515914      3.515905   1.000000   1.000000
   10        4.286227      4.286218   1.000000   1.000000
   11        4.471256      4.471251   1.000000   1.000000
   12        5.594383      5.594373   1.000000   1.000000
   13        6.293934      6.293925   1.000000   1.000000
   14        7.375539      7.375530   1.000000   1.000000
   15        7.868100      7.868090   1.000000   1.000000
   16        9.646710      9.646700   1.000000   1.000000
   17       16.975656     16.975651   0.000000   0.000000
   18       17.599916     17.599907   0.000000   0.000000
   19       19.746914     19.746909   0.000000   0.000000
   20       21.089961     21.089960   0.000000   0.000000
   21       21.105871     21.105864   0.000000   0.000000
   22       21.790257     21.790250   0.000000   0.000000
   23       22.212274     22.212260   0.000000   0.000000
   24       22.415582     22.415567   0.000000   0.000000
   25       23.489559     23.489550   0.000000   0.000000
   26       25.785864     25.785864   0.000000   0.000000
   27       26.033390     26.033382   0.000000   0.000000
   28       26.208574     26.208558   0.000000   0.000000
 
  0.5000000E+00  0.1250000E+00  0.3742002E-15  0.2343750E-01
    1       -8.912464     -8.912463   1.000000   1.000000
    2       -8.912359     -8.912358   1.000000   1.000000
    3       -2.265808     -2.265808   1.000000   1.000000
    4       -2.265713     -2.265713   1.000000   1.000000
    5       -0.107317     -0.107319   1.000000   1.000000
    6       -0.107275     -0.107277   1.000000   1.000000
    7        1.625813      1.625805   1.000000   1.000000
    8        1.625847      1.625840   1.000000   1.000000
    9        3.712078      3.712070   1.000000   1.000000
   10        3.712126      3.712118   1.000000   1.000000
   11        5.971466      5.971459   1.000000   1.000000
   12        5.971518      5.971511   1.000000   1.000000
   13        6.616083      6.616073   1.000000   1.000000
   14        6.616118      6.616109   1.000000   1.000000
   15        7.966637      7.966628   1.000000   1.000000
   16        7.966692      7.966683   1.000000   1.000000
   17       17.237520     17.237513   0.000000   0.000000
   18       17.237583     17.237577   0.000000   0.000000
   19       21.810172     21.810164   0.000000   0.000000
   20       21.810223     21.810214   0.000000   0.000000
   21       23.203148     23.203144   0.000000   0.000000
   22       23.203192     23.203188   0.000000   0.000000
   23       23.560584     23.560573   0.000000   0.000000
   24       23.560625     23.560614   0.000000   0.000000
   25       24.277483     24.277470   0.000000   0.000000
   26       24.277507     24.277494   0.000000   0.000000
   27       24.643501     24.643485   0.000000   0.000000
   28       24.643528     24.643512   0.000000   0.000000
 
  0.2500000E+00  0.2500000E+00  0.3742002E-15  0.2343750E-01
    1      -10.310645    -10.310644   1.000000   1.000000
    2       -5.449273     -5.449273   1.000000   1.000000
    3       -5.449234     -5.449234   1.000000   1.000000
    4       -2.015234     -2.015233   1.000000   1.000000
    5       -0.878053     -0.878055   1.000000   1.000000
    6        1.114876      1.114869   1.000000   1.000000
    7        2.190276      2.190274   1.000000   1.000000
    8        2.190277      2.190275   1.000000   1.000000
    9        3.874154      3.874146   1.000000   1.000000
   10        3.874157      3.874149   1.000000   1.000000
   11        4.993888      4.993879   1.000000   1.000000
   12        4.993983      4.993974   1.000000   1.000000
   13        5.690681      5.690672   1.000000   1.000000
   14        7.437091      7.437083   1.000000   1.000000
   15        8.070660      8.070651   1.000000   1.000000
   16       10.939674     10.939662   1.000000   1.000000
   17       17.789789     17.789787   0.000000   0.000000
   18       18.627901     18.627896   0.000000   0.000000
   19       18.627909     18.627903   0.000000   0.000000
   20       19.050396     19.050383   0.000000   0.000000
   21       20.690125     20.690114   0.000000   0.000000
   22       20.853640     20.853628   0.000000   0.000000
   23       20.880812     20.880808   0.000000   0.000000
   24       20.880869     20.880865   0.000000   0.000000
   25       23.505585     23.505578   0.000000   0.000000
   26       26.435037     26.435025   0.000000   0.000000
   27       26.435114     26.435102   0.000000   0.000000
   28       27.940015     27.940074   0.000000   0.000000
 
  0.3750000E+00  0.2500000E+00  0.3742002E-15  0.4687500E-01
    1       -9.532547     -9.532546   1.000000   1.000000
    2       -7.084711     -7.084711   1.000000   1.000000
    3       -4.753924     -4.753924   1.000000   1.000000
    4       -2.820549     -2.820548   1.000000   1.000000
    5       -0.227192     -0.227194   1.000000   1.000000
    6        1.092670      1.092663   1.000000   1.000000
    7        1.464512      1.464509   1.000000   1.000000
    8        2.747548      2.747541   1.000000   1.000000
    9        3.518101      3.518096   1.000000   1.000000
   10        4.575348      4.575340   1.000000   1.000000
   11        5.169731      5.169722   1.000000   1.000000
   12        5.855980      5.855970   1.000000   1.000000
   13        6.042015      6.042008   1.000000   1.000000
   14        6.714027      6.714018   1.000000   1.000000
   15        6.753690      6.753682   1.000000   1.000000
   16       10.076498     10.076487   1.000000   1.000000
   17       18.708406     18.708399   0.000000   0.000000
   18       18.844518     18.844514   0.000000   0.000000
   19       19.164986     19.164975   0.000000   0.000000
   20       20.990795     20.990787   0.000000   0.000000
   21       21.708582     21.708570   0.000000   0.000000
   22       22.067388     22.067379   0.000000   0.000000
   23       22.246658     22.246652   0.000000   0.000000
   24       22.417273     22.417260   0.000000   0.000000
   25       24.948597     24.948588   0.000000   0.000000
   26       25.176147     25.176143   0.000000   0.000000
   27       25.661893     25.661879   0.000000   0.000000
   28       26.542032     26.542020   0.000000   0.000000
 
  0.5000000E+00  0.2500000E+00  0.3742002E-15  0.2343750E-01
    1       -8.453065     -8.453064   1.000000   1.000000
    2       -8.452960     -8.452959   1.000000   1.000000
    3       -3.837430     -3.837429   1.000000   1.000000
    4       -3.837325     -3.837325   1.000000   1.000000
    5        0.589295      0.589293   1.000000   1.000000
    6        0.589334      0.589332   1.000000   1.000000
    7        1.747238      1.747231   1.000000   1.000000
    8        1.747280      1.747274   1.000000   1.000000
    9        4.739791      4.739785   1.000000   1.000000
   10        4.739841      4.739835   1.000000   1.000000
   11        5.554036      5.554028   1.000000   1.000000
   12        5.554075      5.554067   1.000000   1.000000
   13        5.556964      5.556955   1.000000   1.000000
   14        5.557026      5.557017   1.000000   1.000000
   15        8.558390      8.558380   1.000000   1.000000
   16        8.558445      8.558435   1.000000   1.000000
   17       18.923449     18.923440   0.000000   0.000000
   18       18.923511     18.923502   0.000000   0.000000
   19       20.686056     20.686049   0.000000   0.000000
   20       20.686105     20.686098   0.000000   0.000000
   21       22.738948     22.738936   0.000000   0.000000
   22       22.739008     22.738996   0.000000   0.000000
   23       23.579021     23.579009   0.000000   0.000000
   24       23.579057     23.579045   0.000000   0.000000
   25       24.656800     24.656784   0.000000   0.000000
   26       24.656832     24.656816   0.000000   0.000000
   27       24.895828     24.895827   0.000000   0.000000
   28       24.895853     24.895852   0.000000   0.000000
 
  0.3750000E+00  0.3750000E+00  0.3742002E-15  0.2343750E-01
    1       -8.761519     -8.761518   1.000000   1.000000
    2       -6.348060     -6.348059   1.000000   1.000000
    3       -6.348023     -6.348022   1.000000   1.000000
    4       -4.126592     -4.126591   1.000000   1.000000
    5        0.488727      0.488724   1.000000   1.000000
    6        1.500264      1.500258   1.000000   1.000000
    7        2.436310      2.436307   1.000000   1.000000
    8        2.436311      2.436308   1.000000   1.000000
    9        3.398097      3.398090   1.000000   1.000000
   10        3.398100      3.398093   1.000000   1.000000
   11        4.719502      4.719496   1.000000   1.000000
   12        5.492546      5.492538   1.000000   1.000000
   13        6.900856      6.900846   1.000000   1.000000
   14        7.085218      7.085209   1.000000   1.000000
   15        7.085327      7.085317   1.000000   1.000000
   16        9.808522      9.808510   1.000000   1.000000
   17       18.957502     18.957499   0.000000   0.000000
   18       20.632359     20.632344   0.000000   0.000000
   19       21.003523     21.003513   0.000000   0.000000
   20       21.003523     21.003513   0.000000   0.000000
   21       21.332177     21.332168   0.000000   0.000000
   22       21.797458     21.797448   0.000000   0.000000
   23       21.797498     21.797489   0.000000   0.000000
   24       22.969306     22.969295   0.000000   0.000000
   25       25.242508     25.242491   0.000000   0.000000
   26       25.496230     25.496227   0.000000   0.000000
   27       25.496250     25.496247   0.000000   0.000000
   28       27.052359     27.052335   0.000000   0.000000
 
  0.5000000E+00  0.3750000E+00  0.3742002E-15  0.2343750E-01
    1       -7.694460     -7.694459   1.000000   1.000000
    2       -7.694354     -7.694353   1.000000   1.000000
    3       -5.345387     -5.345387   1.000000   1.000000
    4       -5.345281     -5.345281   1.000000   1.000000
    5        1.393086      1.393083   1.000000   1.000000
    6        1.393127      1.393124   1.000000   1.000000
    7        2.322089      2.322083   1.000000   1.000000
    8        2.322133      2.322127   1.000000   1.000000
    9        3.505701      3.505696   1.000000   1.000000
   10        3.505748      3.505743   1.000000   1.000000
   11        4.335409      4.335401   1.000000   1.000000
   12        4.335451      4.335443   1.000000   1.000000
   13        7.242603      7.242593   1.000000   1.000000
   14        7.242666      7.242656   1.000000   1.000000
   15        8.753906      8.753895   1.000000   1.000000
   16        8.753961      8.753950   1.000000   1.000000
   17       20.112683     20.112677   0.000000   0.000000
   18       20.112733     20.112727   0.000000   0.000000
   19       21.024538     21.024525   0.000000   0.000000
   20       21.024597     21.024584   0.000000   0.000000
   21       21.382044     21.382036   0.000000   0.000000
   22       21.382100     21.382091   0.000000   0.000000
   23       23.404211     23.404197   0.000000   0.000000
   24       23.404253     23.404239   0.000000   0.000000
   25       24.808194     24.808181   0.000000   0.000000
   26       24.808242     24.808229   0.000000   0.000000
   27       26.627687     26.627685   0.000000   0.000000
   28       26.627709     26.627707   0.000000   0.000000
 
  0.5000000E+00  0.5000000E+00  0.3742002E-15  0.5859375E-02
    1       -6.649893     -6.649893   1.000000   1.000000
    2       -6.649752     -6.649751   1.000000   1.000000
    3       -6.649750     -6.649750   1.000000   1.000000
    4       -6.649681     -6.649680   1.000000   1.000000
    5        2.370058      2.370054   1.000000   1.000000
    6        2.370063      2.370060   1.000000   1.000000
    7        2.370105      2.370101   1.000000   1.000000
    8        2.370107      2.370103   1.000000   1.000000
    9        3.215300      3.215294   1.000000   1.000000
   10        3.215334      3.215328   1.000000   1.000000
   11        3.215344      3.215337   1.000000   1.000000
   12        3.215386      3.215379   1.000000   1.000000
   13        8.363903      8.363892   1.000000   1.000000
   14        8.363947      8.363936   1.000000   1.000000
   15        8.363992      8.363981   1.000000   1.000000
   16        8.364081      8.364070   1.000000   1.000000
   17       20.357630     20.357624   0.000000   0.000000
   18       20.357717     20.357711   0.000000   0.000000
   19       20.357718     20.357711   0.000000   0.000000
   20       20.357753     20.357747   0.000000   0.000000
   21       22.748649     22.748634   0.000000   0.000000
   22       22.748653     22.748638   0.000000   0.000000
   23       22.748707     22.748691   0.000000   0.000000
   24       22.748712     22.748696   0.000000   0.000000
   25       25.606524     25.606513   0.000000   0.000000
   26       25.606571     25.606560   0.000000   0.000000
   27       25.606613     25.606602   0.000000   0.000000
   28       25.606662     25.606651   0.000000   0.000000
 
  0.1250000E+00  0.1250000E+00  0.1250000E+00  0.1562500E-01
    1      -11.094068    -11.094067   1.000000   1.000000
    2       -3.845662     -3.845662   1.000000   1.000000
    3       -3.845598     -3.845599   1.000000   1.000000
    4       -3.845598     -3.845599   1.000000   1.000000
    5        0.368696      0.368695   1.000000   1.000000
    6        0.368741      0.368740   1.000000   1.000000
    7        0.368741      0.368740   1.000000   1.000000
    8        3.426981      3.426973   1.000000   1.000000
    9        3.427035      3.427026   1.000000   1.000000
   10        3.427035      3.427026   1.000000   1.000000
   11        5.056651      5.056641   1.000000   1.000000
   12        5.056651      5.056641   1.000000   1.000000
   13        5.056695      5.056685   1.000000   1.000000
   14        9.100843      9.100833   1.000000   1.000000
   15       11.032318     11.032306   1.000000   1.000000
   16       11.032318     11.032306   1.000000   1.000000
   17       17.063001     17.063000   0.000000   0.000000
   18       17.063001     17.063000   0.000000   0.000000
   19       17.063046     17.063044   0.000000   0.000000
   20       18.735856     18.735843   0.000000   0.000000
   21       18.735856     18.735843   0.000000   0.000000
   22       19.262029     19.262026   0.000000   0.000000
   23       19.262029     19.262026   0.000000   0.000000
   24       19.262088     19.262085   0.000000   0.000000
   25       19.356991     19.356980   0.000000   0.000000
   26       28.387829     28.387836   0.000000   0.000000
   27       29.342012     29.341989   0.000000   0.000000
   28       29.342015     29.341998   0.000000   0.000000
 
  0.2500000E+00  0.1250000E+00  0.1250000E+00  0.4687500E-01
    1      -10.623372    -10.623371   1.000000   1.000000
    2       -5.734768     -5.734768   1.000000   1.000000
    3       -3.470873     -3.470873   1.000000   1.000000
    4       -3.470824     -3.470824   1.000000   1.000000
    5        0.244071      0.244070   1.000000   1.000000
    6        0.244083      0.244082   1.000000   1.000000
    7        2.274819      2.274816   1.000000   1.000000
    8        2.541689      2.541681   1.000000   1.000000
    9        2.541742      2.541735   1.000000   1.000000
   10        4.311658      4.311650   1.000000   1.000000
   11        4.995001      4.994991   1.000000   1.000000
   12        4.995018      4.995009   1.000000   1.000000
   13        5.511274      5.511264   1.000000   1.000000
   14        7.625908      7.625900   1.000000   1.000000
   15        9.820277      9.820266   1.000000   1.000000
   16       10.732193     10.732182   1.000000   1.000000
   17       17.144204     17.144202   0.000000   0.000000
   18       18.000520     18.000518   0.000000   0.000000
   19       18.000550     18.000548   0.000000   0.000000
   20       18.477384     18.477372   0.000000   0.000000
   21       20.211201     20.211199   0.000000   0.000000
   22       20.269006     20.268992   0.000000   0.000000
   23       20.499690     20.499679   0.000000   0.000000
   24       21.327418     21.327412   0.000000   0.000000
   25       21.327449     21.327444   0.000000   0.000000
   26       27.906913     27.906890   0.000000   0.000000
   27       27.910004     27.911222   0.000000   0.000000
   28       28.011243     28.011296   0.000000   0.000000
 
  0.3750000E+00  0.1250000E+00  0.1250000E+00  0.4687500E-01
    1       -9.842760     -9.842759   1.000000   1.000000
    2       -7.383271     -7.383271   1.000000   1.000000
    3       -2.931359     -2.931359   1.000000   1.000000
    4       -2.931295     -2.931295   1.000000   1.000000
    5       -0.314357     -0.314360   1.000000   1.000000
    6       -0.314339     -0.314342   1.000000   1.000000
    7        2.328372      2.328366   1.000000   1.000000
    8        2.328455      2.328449   1.000000   1.000000
    9        3.644466      3.644461   1.000000   1.000000
   10        4.540319      4.540311   1.000000   1.000000
   11        4.540322      4.540313   1.000000   1.000000
   12        5.991970      5.991962   1.000000   1.000000
   13        6.174585      6.174578   1.000000   1.000000
   14        6.255968      6.255958   1.000000   1.000000
   15        8.484858      8.484847   1.000000   1.000000
   16        9.592861      9.592851   1.000000   1.000000
   17       17.356667     17.356662   0.000000   0.000000
   18       18.086182     18.086173   0.000000   0.000000