       N       E                     dE             d eps       ncg     rms          rms(c)
DAV:   1    -0.478708090401E+02   -0.47871E+02   -0.15350E+04  3984   0.927E+02
DAV:   2    -0.179379520341E+03   -0.13151E+03   -0.12520E+03  5148   0.227E+02
DAV:   3    -0.184665258523E+03   -0.52857E+01   -0.52415E+01  5264   0.403E+01
DAV:   4    -0.184746054214E+03   -0.80796E-01   -0.80523E-01  4996   0.528E+00
DAV:   5    -0.184748122546E+03   -0.20683E-02   -0.20671E-02  5260   0.792E-01    0.483E+01
DAV:   6    -0.102463940070E+03    0.82284E+02   -0.46218E+01  4292   0.334E+01    0.257E+01
DAV:   7    -0.722775493655E+02    0.30186E+02   -0.59591E+01  4656   0.382E+01    0.347E+00
DAV:   8    -0.725305268855E+02   -0.25298E+00   -0.18225E+00  4808   0.651E+00    0.130E+00
DAV:   9    -0.725704202278E+02   -0.39893E-01   -0.13450E-01  4596   0.257E+00    0.242E-01
DAV:  10    -0.725814566146E+02   -0.11036E-01   -0.15200E-02  4592   0.894E-01    0.847E-02
DAV:  11    -0.725820442168E+02   -0.58760E-03   -0.36615E-04  4800   0.166E-01    0.518E-02
DAV:  12    -0.725823640831E+02   -0.31987E-03   -0.17095E-04  4416   0.108E-01    0.104E-02
DAV:  13    -0.725823727197E+02   -0.86366E-05   -0.10471E-05  4736   0.216E-02    0.190E-03
DAV:  14    -0.725823733837E+02   -0.66398E-06   -0.38505E-07  3104   0.483E-03
   1 F= -.52306840E+02 E0= -.52306840E+02  d E =-.523068E+02  mag=     0.0000
       N       E                     dE             d eps       ncg     rms          rms(c)
DAV:   1    -0.725340894330E+02    0.48283E-01   -0.62047E-02  4316   0.158E+00    0.193E-01
DAV:   2    -0.725334164597E+02    0.67297E-03   -0.11742E-03  4856   0.174E-01    0.106E-01
DAV:   3    -0.725331146919E+02    0.30177E-03   -0.46221E-04  4300   0.108E-01    0.655E-03
DAV:   4    -0.725331144910E+02    0.20089E-06   -0.58158E-06  4608   0.136E-02
   2 F= -.52418551E+02 E0= -.52418551E+02  d E =-.111711E+00  mag=     0.0000
       N       E                     dE             d eps       ncg     rms          rms(c)
DAV:   1    -0.723373587775E+02    0.19576E+00   -0.56660E-01  4216   0.482E+00    0.585E-01
DAV:   2    -0.723312269727E+02    0.61318E-02   -0.10922E-02  4724   0.534E-01    0.320E-01
DAV:   3    -0.723284480253E+02    0.27789E-02   -0.41404E-03  4224   0.327E-01    0.202E-02
DAV:   4    -0.723284391613E+02    0.88640E-05   -0.52433E-05  4684   0.411E-02    0.843E-03
DAV:   5    -0.723284381391E+02    0.10222E-05   -0.20172E-06  3596   0.109E-02    0.219E-03
DAV:   6    -0.723284382335E+02   -0.94438E-07   -0.12145E-07  2416   0.312E-03
   3 F= -.52691669E+02 E0= -.52691669E+02  d E =-.384828E+00  mag=     0.0000
       N       E                     dE             d eps       ncg     rms          rms(c)
DAV:   1    -0.716833657682E+02    0.64507E+00   -0.23258E+00  4204   0.996E+00    0.119E+00
DAV:   2    -0.716586847689E+02    0.24681E-01   -0.45760E-02  4648   0.111E+00    0.648E-01
DAV:   3    -0.716474147582E+02    0.11270E-01   -0.16254E-02  4196   0.659E-01    0.426E-02
DAV:   4    -0.716473699140E+02    0.44844E-04   -0.20903E-04  4668   0.834E-02    0.172E-02
DAV:   5    -0.716473612224E+02    0.86916E-05   -0.92186E-06  4476   0.217E-02    0.159E-03
DAV:   6    -0.716473609474E+02    0.27498E-06   -0.23353E-07  2384   0.283E-03
   4 F= -.52943360E+02 E0= -.52943360E+02  d E =-.636519E+00  mag=     0.0000
       N       E                     dE             d eps       ncg     rms          rms(c)
DAV:   1    -0.715490720171E+02    0.98289E-01   -0.28313E-02  4196   0.110E+00    0.130E-01
DAV:   2    -0.715487724289E+02    0.29959E-03   -0.50949E-04  4692   0.119E-01    0.713E-02
DAV:   3    -0.715486396155E+02    0.13281E-03   -0.19964E-04  4256   0.730E-02    0.449E-03
DAV:   4    -0.715486399427E+02   -0.32718E-06   -0.25744E-06  4148   0.928E-03
   5 F= -.52945794E+02 E0= -.52945794E+02  d E =-.638954E+00  mag=    -0.0000
