 vasp.5.4.4.18Apr17-6-g9f103f2a35 (build Jul  5 2023 12:24:19) complex           
 executed on NVIDIA22.7_CrayMPICH date 2023.10.16  23:30:57
 running on   16 total cores
 distrk:  each k-point on   16 cores,    1 groups
 distr:  one band on NCORES_PER_BAND=   4 cores,    4 groups


--------------------------------------------------------------------------------------------------------


 INCAR:
 POTCAR:   PAW_PBE C 08Apr2002                    
 POTCAR:   PAW_PBE C 08Apr2002                    
  local pseudopotential read in
  atomic valenz-charges read in
  non local Contribution for L=            0  read in
    real space projection operators read in
  non local Contribution for L=            0  read in
    real space projection operators read in
  non local Contribution for L=            1  read in
    real space projection operators read in
  non local Contribution for L=            1  read in
    real space projection operators read in
    PAW grid and wavefunctions read in
 
   number of l-projection  operators is LMAX  =            4
   number of lm-projection operators is LMMAX =            8
 
 PAW_PBE C 08Apr2002                    :
 energy of atom  1       EATOM= -147.1560
 kinetic energy error for atom=    0.0288 (will be added to EATOM!!)
 
 
 POSCAR: C8                                      
  positions in direct lattice
  No initial velocities read in
 exchange correlation table for  LEXCH =        8
   RHO(1)=    0.500       N(1)  =     2000
   RHO(2)=  100.500       N(2)  =     4000
 


--------------------------------------------------------------------------------------------------------


 ion  position               nearest neighbor table
   1  0.757  0.757  0.757-   2 1.52   4 1.52   5 1.52   3 1.52
   2  0.007  0.507  0.007-   1 1.52   6 1.52   7 1.52   8 1.52
   3  0.507  0.507  0.507-   1 1.52   6 1.52   7 1.52   8 1.52
   4  0.007  0.007  0.507-   1 1.52   6 1.52   8 1.52   7 1.52
   5  0.507  0.007  0.007-   1 1.52   7 1.52   8 1.52   6 1.52
   6  0.757  0.257  0.257-   3 1.52   2 1.52   4 1.52   5 1.52
   7  0.257  0.257  0.757-   3 1.52   2 1.52   5 1.52   4 1.52
   8  0.257  0.757  0.257-   3 1.52   4 1.52   5 1.52   2 1.52
 
  LATTYP: Found a simple cubic cell.
 ALAT       =     3.5118870000
  
  Lattice vectors:
  
 A1 = (   3.5118870000,  -0.0000000000,  -0.0000000000)
 A2 = (   0.0000000000,   3.5118870000,  -0.0000000000)
 A3 = (   0.0000000000,   0.0000000000,   3.5118870000)


Analysis of symmetry for initial positions (statically):
=====================================================================
 Subroutine PRICEL returns following result:
 
  LATTYP: Found a face centered cubic cell.
 ALAT       =     3.5118799762
  
  Lattice vectors:
  
 A1 = (   1.7559399881,   1.7559399881,  -0.0000070238)
 A2 = (   1.7559399881,  -0.0000000000,  -1.7559470119)
 A3 = (   0.0000000000,   1.7559399881,  -1.7559470119)
 
   4 primitive cells build up your supercell.
 

 Routine SETGRP: Setting up the symmetry group for a 
 simple cubic supercell.


 Subroutine GETGRP returns: Found 48 space group operations
 (whereof  6 operations were pure point group operations)
 out of a pool of 48 trial point group operations.


The static configuration has the point symmetry C_3v.
 The point group associated with its full space group is O_h .


Analysis of symmetry for dynamics (positions and initial velocities):
=====================================================================
 Subroutine PRICEL returns following result:
 
  LATTYP: Found a face centered cubic cell.
 ALAT       =     3.5118799762
  
  Lattice vectors:
  
 A1 = (   1.7559399881,   1.7559399881,  -0.0000070238)
 A2 = (   1.7559399881,  -0.0000000000,  -1.7559470119)
 A3 = (   0.0000000000,   1.7559399881,  -1.7559470119)
 
   4 primitive cells build up your supercell.
 

 Routine SETGRP: Setting up the symmetry group for a 
 simple cubic supercell.


 Subroutine GETGRP returns: Found 48 space group operations
 (whereof  6 operations were pure point group operations)
 out of a pool of 48 trial point group operations.


The dynamic configuration has the point symmetry C_3v.
 The point group associated with its full space group is O_h .


Analysis of structural, dynamic, and magnetic symmetry:
=====================================================================
 Subroutine PRICEL returns following result:
 
  LATTYP: Found a face centered cubic cell.
 ALAT       =     3.5118799762
  
  Lattice vectors:
  
 A1 = (   1.7559399881,   1.7559399881,  -0.0000070238)
 A2 = (   1.7559399881,  -0.0000000000,  -1.7559470119)
 A3 = (   0.0000000000,   1.7559399881,  -1.7559470119)
 
   4 primitive cells build up your supercell.
 

 Routine SETGRP: Setting up the symmetry group for a 
 simple cubic supercell.


 Subroutine GETGRP returns: Found 48 space group operations
 (whereof  6 operations were pure point group operations)
 out of a pool of 48 trial point group operations.


The magnetic configuration has the point symmetry C_3v.
 The point group associated with its full space group is O_h .


 Subroutine INISYM returns: Found 48 space group operations
 (whereof  6 operations are pure point group operations),
 and found     4 'primitive' translations

 
 
 KPOINTS: kpt_density=6000                        

Automatic generation of k-mesh.
Space group operators:
 irot       det(A)        alpha          n_x          n_y          n_z        tau_x        tau_y        tau_z
    1     1.000000     0.000000     1.000000     0.000000     0.000000     0.000000     0.000000    -0.000000
    2     1.000000   120.000000    -0.577350    -0.577350    -0.577350     0.000000     0.000000    -0.000000
    3     1.000000   120.000000     0.577350     0.577350     0.577350     0.000000     0.000000    -0.000000
    4    -1.000000   180.000000     0.000000    -0.707107     0.707107     0.000000     0.000000    -0.000000
    5    -1.000000   180.000000     0.707107    -0.707107     0.000000     0.000000     0.000000    -0.000000
    6    -1.000000   180.000000     0.707107     0.000000    -0.707107     0.000000     0.000000    -0.000000
    7    -1.000000     0.000000     1.000000     0.000000     0.000000     0.763390     0.763390    -0.736610
    8    -1.000000   120.000000    -0.577350    -0.577350    -0.577350     0.763390     0.763390    -0.736610
    9    -1.000000   120.000000     0.577350     0.577350     0.577350     0.763390     0.763390    -0.736610
   10     1.000000    90.000000     0.000000     0.000000    -1.000000     0.763390     0.749998    -0.750002
   11    -1.000000    90.000000     0.000000     0.000000    -1.000000     0.499999     0.013390    -0.486611
   12     1.000000   180.000000     0.000000     0.707107     0.707107     0.763390     0.749998    -0.750002
   13    -1.000000   180.000000     0.000000     0.707107     0.707107     0.499999     0.013390    -0.486611
   14     1.000000    90.000000     0.000000     1.000000     0.000000     0.763390     0.749998    -0.750002
   15    -1.000000    90.000000     0.000000     1.000000     0.000000     0.499999     0.013390    -0.486611
   16     1.000000   180.000000     0.000000     0.000000     1.000000     0.513391     0.513391    -1.000002
   17    -1.000000   180.000000     0.000000     0.000000     1.000000     0.749999     0.749999    -0.736610
   18     1.000000   120.000000    -0.577350     0.577350     0.577350     0.513391     0.513391    -1.000002
   19    -1.000000   120.000000    -0.577350     0.577350     0.577350     0.749999     0.749999    -0.736610
   20     1.000000   120.000000    -0.577350     0.577350    -0.577350     0.513391     0.513391    -1.000002
   21    -1.000000   120.000000    -0.577350     0.577350    -0.577350     0.749999     0.749999    -0.736610
   22     1.000000    90.000000     0.000000     0.000000     1.000000     0.749999     0.763390    -0.750001
   23    -1.000000    90.000000     0.000000     0.000000     1.000000     0.013392     0.499999    -0.486609
   24     1.000000    90.000000    -1.000000     0.000000     0.000000     0.749999     0.763390    -0.750001
   25    -1.000000    90.000000    -1.000000     0.000000     0.000000     0.013392     0.499999    -0.486609
   26     1.000000   180.000000     0.707107     0.000000     0.707107     0.749999     0.763390    -0.750001
   27    -1.000000   180.000000     0.707107     0.000000     0.707107     0.013392     0.499999    -0.486609
   28     1.000000   120.000000     0.577350    -0.577350     0.577350     0.499999     0.013390    -0.486611
   29    -1.000000   120.000000     0.577350    -0.577350     0.577350     0.763390     0.749998    -0.750002
   30     1.000000   120.000000    -0.577350    -0.577350     0.577350     0.499999     0.013390    -0.486611
   31    -1.000000   120.000000    -0.577350    -0.577350     0.577350     0.763390     0.749998    -0.750002
   32     1.000000   180.000000     1.000000     0.000000     0.000000     0.499999     0.013390    -0.486611
   33    -1.000000   180.000000     1.000000     0.000000     0.000000     0.763390     0.749998    -0.750002
   34     1.000000    90.000000     0.000000    -1.000000     0.000000     0.749999     0.749999    -0.736610
   35    -1.000000    90.000000     0.000000    -1.000000     0.000000     0.513391     0.513391    -1.000002
   36     1.000000   180.000000     0.707107     0.707107     0.000000     0.749999     0.749999    -0.736610
   37    -1.000000   180.000000     0.707107     0.707107     0.000000     0.513391     0.513391    -1.000002
   38     1.000000    90.000000     1.000000     0.000000     0.000000     0.749999     0.749999    -0.736610
   39    -1.000000    90.000000     1.000000     0.000000     0.000000     0.513391     0.513391    -1.000002
   40     1.000000   120.000000     0.577350    -0.577350    -0.577350     0.013392     0.499999    -0.486609
   41    -1.000000   120.000000     0.577350    -0.577350    -0.577350     0.749999     0.763390    -0.750001
   42     1.000000   180.000000     0.000000     1.000000     0.000000     0.013392     0.499999    -0.486609
   43    -1.000000   180.000000     0.000000     1.000000     0.000000     0.749999     0.763390    -0.750001
   44     1.000000   120.000000     0.577350     0.577350    -0.577350     0.013392     0.499999    -0.486609
   45    -1.000000   120.000000     0.577350     0.577350    -0.577350     0.749999     0.763390    -0.750001
   46     1.000000   180.000000     0.000000    -0.707107     0.707107     0.763390     0.763390    -0.736610
   47     1.000000   180.000000     0.707107    -0.707107     0.000000     0.763390     0.763390    -0.736610
   48     1.000000   180.000000     0.707107     0.000000    -0.707107     0.763390     0.763390    -0.736610
 
 Subroutine IBZKPT returns following result:
 ===========================================
 
 Found     35 irreducible k-points:
 
 Following reciprocal coordinates:
            Coordinates               Weight
  0.000000  0.000000  0.000000      1.000000
  0.125000  0.000000  0.000000      6.000000
  0.250000  0.000000  0.000000      6.000000
  0.375000  0.000000  0.000000      6.000000
  0.500000  0.000000  0.000000      3.000000
  0.125000  0.125000  0.000000     12.000000
  0.250000  0.125000  0.000000     24.000000
  0.375000  0.125000  0.000000     24.000000
  0.500000  0.125000  0.000000     12.000000
  0.250000  0.250000  0.000000     12.000000
  0.375000  0.250000  0.000000     24.000000
  0.500000  0.250000  0.000000     12.000000
  0.375000  0.375000  0.000000     12.000000
  0.500000  0.375000  0.000000     12.000000
  0.500000  0.500000  0.000000      3.000000
  0.125000  0.125000  0.125000      8.000000
  0.250000  0.125000  0.125000     24.000000
  0.375000  0.125000  0.125000     24.000000
  0.500000  0.125000  0.125000     12.000000
  0.250000  0.250000  0.125000     24.000000
  0.375000  0.250000  0.125000     48.000000
  0.500000  0.250000  0.125000     24.000000
  0.375000  0.375000  0.125000     24.000000
  0.500000  0.375000  0.125000     24.000000
  0.500000  0.500000  0.125000      6.000000
  0.250000  0.250000  0.250000      8.000000
  0.375000  0.250000  0.250000     24.000000
  0.500000  0.250000  0.250000     12.000000
  0.375000  0.375000  0.250000     24.000000
  0.500000  0.375000  0.250000     24.000000
  0.500000  0.500000  0.250000      6.000000
  0.375000  0.375000  0.375000      8.000000
  0.500000  0.375000  0.375000     12.000000
  0.500000  0.500000  0.375000      6.000000
  0.500000  0.500000  0.500000      1.000000
 
 Following cartesian coordinates:
            Coordinates               Weight
  0.000000  0.000000  0.000000      1.000000
  0.035593  0.000000  0.000000      6.000000
  0.071187  0.000000  0.000000      6.000000
  0.106780  0.000000  0.000000      6.000000
  0.142374  0.000000  0.000000      3.000000
  0.035593  0.035593  0.000000     12.000000
  0.071187  0.035593  0.000000     24.000000
  0.106780  0.035593  0.000000     24.000000
  0.142374  0.035593  0.000000     12.000000
  0.071187  0.071187  0.000000     12.000000
  0.106780  0.071187  0.000000     24.000000
  0.142374  0.071187  0.000000     12.000000
  0.106780  0.106780  0.000000     12.000000
  0.142374  0.106780  0.000000     12.000000
  0.142374  0.142374  0.000000      3.000000
  0.035593  0.035593  0.035593      8.000000
  0.071187  0.035593  0.035593     24.000000
  0.106780  0.035593  0.035593     24.000000
  0.142374  0.035593  0.035593     12.000000
  0.071187  0.071187  0.035593     24.000000
  0.106780  0.071187  0.035593     48.000000
  0.142374  0.071187  0.035593     24.000000
  0.106780  0.106780  0.035593     24.000000
  0.142374  0.106780  0.035593     24.000000
  0.142374  0.142374  0.035593      6.000000
  0.071187  0.071187  0.071187      8.000000
  0.106780  0.071187  0.071187     24.000000
  0.142374  0.071187  0.071187     12.000000
  0.106780  0.106780  0.071187     24.000000
  0.142374  0.106780  0.071187     24.000000
  0.142374  0.142374  0.071187      6.000000
  0.106780  0.106780  0.106780      8.000000
  0.142374  0.106780  0.106780     12.000000
  0.142374  0.142374  0.106780      6.000000
  0.142374  0.142374  0.142374      1.000000
 
 TETIRR: Found    250 inequivalent tetrahedra from     3072


--------------------------------------------------------------------------------------------------------




 Dimension of arrays:
   k-points           NKPTS =     35   k-points in BZ     NKDIM =     35   number of bands    NBANDS=     28
   number of dos      NEDOS =    301   number of ions     NIONS =      8
   non local maximal  LDIM  =      4   non local SUM 2l+1 LMDIM =      8
   total plane-waves  NPLWV =  13824
   max r-space proj   IRMAX =      1   max aug-charges    IRDMAX=   3965
   dimension x,y,z NGX =    24 NGY =   24 NGZ =   24
   dimension x,y,z NGXF=    48 NGYF=   48 NGZF=   48
   support grid    NGXF=    48 NGYF=   48 NGZF=   48
   ions per type =               8
   NGX,Y,Z   is equivalent  to a cutoff of  11.36, 11.36, 11.36 a.u.
   NGXF,Y,Z  is equivalent  to a cutoff of  22.72, 22.72, 22.72 a.u.

 SYSTEM =  unknown system                          
 POSCAR =  C8                                      

 Startparameter for this run:
   NWRITE =      0    write-flag & timer
   PREC   = accura    normal or accurate (medium, high low for compatibility)
   ISTART =      0    job   : 0-new  1-cont  2-samecut
   ICHARG =      0    charge: 1-file 2-atom 10-const
   ISPIN  =      2    spin polarized calculation?
   LNONCOLLINEAR =      F non collinear calculations
   LSORBIT =      F    spin-orbit coupling
   INIWAV =      1    electr: 0-lowe 1-rand  2-diag
   LASPH  =      F    aspherical Exc in radial PAW
   METAGGA=      F    non-selfconsistent MetaGGA calc.

 Electronic Relaxation 1
   ENCUT  =  400.0 eV  29.40 Ry    5.42 a.u.   5.73  5.73  5.73*2*pi/ulx,y,z
   ENINI  =  400.0     initial cutoff
   ENAUG  =  644.9 eV  augmentation charge cutoff
   NELM   =     60;   NELMIN=  2; NELMDL= -5     # of ELM steps 
   EDIFF  = 0.1E-05   stopping-criterion for ELM
   LREAL  =      F    real-space projection
   NLSPLINE    = F    spline interpolate recip. space projectors
   LCOMPAT=      F    compatible to vasp.4.4
   GGA_COMPAT  = T    GGA compatible to vasp.4.4-vasp.4.6
   LMAXPAW     = -100 max onsite density
   LMAXMIX     =    2 max onsite mixed and CHGCAR
   VOSKOWN=      0    Vosko Wilk Nusair interpolation
   ROPT   =    0.00000
 Ionic relaxation
   EDIFFG = 0.1E-03   stopping-criterion for IOM
   NSW    =    100    number of steps for IOM
   NBLOCK =      1;   KBLOCK =    100    inner block; outer block 
   IBRION =      2    ionic relax: 0-MD 1-quasi-New 2-CG
   NFREE  =      1    steps in history (QN), initial steepest desc. (CG)
   ISIF   =      3    stress and relaxation
   IWAVPR =     11    prediction:  0-non 1-charg 2-wave 3-comb
   ISYM   =      2    0-nonsym 1-usesym 2-fastsym
   LCORR  =      T    Harris-Foulkes like correction to forces

   POTIM  = 0.0150    time-step for ionic-motion
   TEIN   =    0.0    initial temperature
   TEBEG  =    0.0;   TEEND  =   0.0 temperature during run
   SMASS  =  -3.00    Nose mass-parameter (am)
   estimated Nose-frequenzy (Omega)   =  0.10E-29 period in steps =****** mass=  -0.282E-27a.u.
   SCALEE = 1.0000    scale energy and forces
   NPACO  =    256;   APACO  = 16.0  distance and # of slots for P.C.
   PSTRESS=  750.0 pullay stress

  Mass of Ions in am
   POMASS =  12.01
  Ionic Valenz
   ZVAL   =   4.00
  Atomic Wigner-Seitz radii
   RWIGS  =  -1.00
  virtual crystal weights 
   VCA    =   1.00
   NELECT =      32.0000    total number of electrons
   NUPDOWN=      -1.0000    fix difference up-down

 DOS related values:
   EMIN   =  10.00;   EMAX   =-10.00  energy-range for DOS
   EFERMI =   0.00
   ISMEAR =    -5;   SIGMA  =   0.01  broadening in eV -4-tet -1-fermi 0-gaus

 Electronic relaxation 2 (details)
   IALGO  =     38    algorithm
   LDIAG  =      T    sub-space diagonalisation (order eigenvalues)
   LSUBROT=      F    optimize rotation matrix (better conditioning)
   TURBO    =      0    0=normal 1=particle mesh
   IRESTART =      0    0=no restart 2=restart with 2 vectors
   NREBOOT  =      0    no. of reboots
   NMIN     =      0    reboot dimension
   EREF     =   0.00    reference energy to select bands
   IMIX   =      4    mixing-type and parameters
     AMIX     =   0.40;   BMIX     =  1.00
     AMIX_MAG =   1.60;   BMIX_MAG =  1.00
     AMIN     =   0.10
     WC   =   100.;   INIMIX=   1;  MIXPRE=   1;  MAXMIX= -45

 Intra band minimization:
   WEIMIN = 0.0010     energy-eigenvalue tresh-hold
   EBREAK =  0.89E-08  absolut break condition
   DEPER  =   0.30     relativ break condition  

   TIME   =   0.40     timestep for ELM

  volume/ion in A,a.u.               =       5.41        36.54
  Fermi-wavevector in a.u.,A,eV,Ry     =   1.479963  2.796725 29.800725  2.190291
  Thomas-Fermi vector in A             =   2.594056
 
 Write flags
   LWAVE        =      F    write WAVECAR
   LDOWNSAMPLE  =      F    k-point downsampling of WAVECAR
   LCHARG       =      F    write CHGCAR
   LVTOT        =      F    write LOCPOT, total local potential
   LVHAR        =      F    write LOCPOT, Hartree potential only
   LELF         =      F    write electronic localiz. function (ELF)
   LORBIT       =     11    0 simple, 1 ext, 2 COOP (PROOUT), +10 PAW based schemes


 Dipole corrections
   LMONO  =      F    monopole corrections only (constant potential shift)
   LDIPOL =      F    correct potential (dipole corrections)
   IDIPOL =      0    1-x, 2-y, 3-z, 4-all directions 
   EPSILON=  1.0000000 bulk dielectric constant

 Exchange correlation treatment:
   GGA     =    --    GGA type
   LEXCH   =     8    internal setting for exchange type
   VOSKOWN=      0    Vosko Wilk Nusair interpolation
   LHFCALC =     F    Hartree Fock is set to
   LHFONE  =     F    Hartree Fock one center treatment
   AEXX    =    0.0000 exact exchange contribution

 Linear response parameters
   LEPSILON=     F    determine dielectric tensor
   LRPA    =     F    only Hartree local field effects (RPA)
   LNABLA  =     F    use nabla operator in PAW spheres
   LVEL    =     F    velocity operator in full k-point grid
   LINTERFAST=   F  fast interpolation
   KINTER  =     0    interpolate to denser k-point grid
   CSHIFT  =0.1000    complex shift for real part using Kramers Kronig
   OMEGAMAX=  -1.0    maximum frequency
   DEG_THRESHOLD= 0.2000000E-02 threshold for treating states as degnerate
   RTIME   =   -0.100 relaxation time in fs
  (WPLASMAI=    0.000 imaginary part of plasma frequency in eV, 0.658/RTIME)
   DFIELD  = 0.0000000 0.0000000 0.0000000 field for delta impulse in time
 
 Orbital magnetization related:
   ORBITALMAG=     F  switch on orbital magnetization
   LCHIMAG   =     F  perturbation theory with respect to B field
   DQ        =  0.001000  dq finite difference perturbation B field
   LLRAUG    =     F  two centre corrections for induced B field



--------------------------------------------------------------------------------------------------------


 conjugate gradient relaxation of ions
 charge density and potential will be updated during run
 spin polarized calculation
 Variant of blocked Davidson
 Davidson routine will perform the subspace rotation
 perform sub-space diagonalisation
    after iterative eigenvector-optimisation
 modified Broyden-mixing scheme, WC =      100.0
 initial mixing is a Kerker type mixing with AMIX =  0.4000 and BMIX =      1.0000
 Hartree-type preconditioning will be used
 using additional bands            12
 reciprocal scheme for non local part
 calculate Harris-corrections to forces 
   (improved forces if not selfconsistent)
 use gradient corrections 
 use of overlap-Matrix (Vanderbilt PP)
 Fermi weights with tetrahedron method with Bloechl corrections


--------------------------------------------------------------------------------------------------------


  energy-cutoff  :      400.00
  volume of cell :       43.31
      direct lattice vectors                 reciprocal lattice vectors
     3.511887000 -0.000000000 -0.000000000     0.284747203 -0.000000000  0.000000000
     0.000000000  3.511887000 -0.000000000     0.000000000  0.284747203 -0.000000000
     0.000000000  0.000000000  3.511887000     0.000000000  0.000000000  0.284747203

  length of vectors
     3.511887000  3.511887000  3.511887000     0.284747203  0.284747203  0.284747203


 
 k-points in units of 2pi/SCALE and weight: kpt_density=6000                        
   0.00000000  0.00000000  0.00000000       0.002
   0.03559340  0.00000000  0.00000000       0.012
   0.07118680  0.00000000  0.00000000       0.012
   0.10678020  0.00000000  0.00000000       0.012
   0.14237360  0.00000000  0.00000000       0.006
   0.03559340  0.03559340  0.00000000       0.023
   0.07118680  0.03559340  0.00000000       0.047
   0.10678020  0.03559340  0.00000000       0.047
   0.14237360  0.03559340  0.00000000       0.023
   0.07118680  0.07118680  0.00000000       0.023
   0.10678020  0.07118680  0.00000000       0.047
   0.14237360  0.07118680  0.00000000       0.023
   0.10678020  0.10678020  0.00000000       0.023
   0.14237360  0.10678020  0.00000000       0.023
   0.14237360  0.14237360  0.00000000       0.006
   0.03559340  0.03559340  0.03559340       0.016
   0.07118680  0.03559340  0.03559340       0.047
   0.10678020  0.03559340  0.03559340       0.047
   0.14237360  0.03559340  0.03559340       0.023
   0.07118680  0.07118680  0.03559340       0.047
   0.10678020  0.07118680  0.03559340       0.094
   0.14237360  0.07118680  0.03559340       0.047
   0.10678020  0.10678020  0.03559340       0.047
   0.14237360  0.10678020  0.03559340       0.047
   0.14237360  0.14237360  0.03559340       0.012
   0.07118680  0.07118680  0.07118680       0.016
   0.10678020  0.07118680  0.07118680       0.047
   0.14237360  0.07118680  0.07118680       0.023
   0.10678020  0.10678020  0.07118680       0.047
   0.14237360  0.10678020  0.07118680       0.047
   0.14237360  0.14237360  0.07118680       0.012
   0.10678020  0.10678020  0.10678020       0.016
   0.14237360  0.10678020  0.10678020       0.023
   0.14237360  0.14237360  0.10678020       0.012
   0.14237360  0.14237360  0.14237360       0.002
 
 k-points in reciprocal lattice and weights: kpt_density=6000                        
   0.00000000  0.00000000  0.00000000       0.002
   0.12500000  0.00000000  0.00000000       0.012
   0.25000000  0.00000000  0.00000000       0.012
   0.37500000  0.00000000  0.00000000       0.012
   0.50000000  0.00000000  0.00000000       0.006
   0.12500000  0.12500000  0.00000000       0.023
   0.25000000  0.12500000  0.00000000       0.047
   0.37500000  0.12500000  0.00000000       0.047
   0.50000000  0.12500000  0.00000000       0.023
   0.25000000  0.25000000  0.00000000       0.023
   0.37500000  0.25000000  0.00000000       0.047
   0.50000000  0.25000000  0.00000000       0.023
   0.37500000  0.37500000  0.00000000       0.023
   0.50000000  0.37500000  0.00000000       0.023
   0.50000000  0.50000000  0.00000000       0.006
   0.12500000  0.12500000  0.12500000       0.016
   0.25000000  0.12500000  0.12500000       0.047
   0.37500000  0.12500000  0.12500000       0.047
   0.50000000  0.12500000  0.12500000       0.023
   0.25000000  0.25000000  0.12500000       0.047
   0.37500000  0.25000000  0.12500000       0.094
   0.50000000  0.25000000  0.12500000       0.047
   0.37500000  0.37500000  0.12500000       0.047
   0.50000000  0.37500000  0.12500000       0.047
   0.50000000  0.50000000  0.12500000       0.012
   0.25000000  0.25000000  0.25000000       0.016
   0.37500000  0.25000000  0.25000000       0.047
   0.50000000  0.25000000  0.25000000       0.023
   0.37500000  0.37500000  0.25000000       0.047
   0.50000000  0.37500000  0.25000000       0.047
   0.50000000  0.50000000  0.25000000       0.012
   0.37500000  0.37500000  0.37500000       0.016
   0.50000000  0.37500000  0.37500000       0.023
   0.50000000  0.50000000  0.37500000       0.012
   0.50000000  0.50000000  0.50000000       0.002
 
 position of ions in fractional coordinates (direct lattice) 
   0.75669600  0.75669600  0.75669600
   0.00669500  0.50669600  0.00669500
   0.50669600  0.50669600  0.50669600
   0.00669500  0.00669500  0.50669600
   0.50669600  0.00669500  0.00669500
   0.75669600  0.25669600  0.25669600
   0.25669600  0.25669600  0.75669600
   0.25669600  0.75669600  0.25669600
 
 position of ions in cartesian coordinates  (Angst):
   2.65743085  2.65743085  2.65743085
   0.02351208  1.77945910  0.02351208
   1.77945910  1.77945910  1.77945910
   0.02351208  0.02351208  1.77945910
   1.77945910  0.02351208  0.02351208
   2.65743085  0.90148735  0.90148735
   0.90148735  0.90148735  2.65743085
   0.90148735  2.65743085  0.90148735
 


--------------------------------------------------------------------------------------------------------


 k-point  1 :   0.0000 0.0000 0.0000  plane waves:     751
 k-point  2 :   0.1250 0.0000 0.0000  plane waves:     775
 k-point  3 :   0.2500 0.0000 0.0000  plane waves:     799
 k-point  4 :   0.3750 0.0000 0.0000  plane waves:     792
 k-point  5 :   0.5000 0.0000 0.0000  plane waves:     804
 k-point  6 :   0.1250 0.1250 0.0000  plane waves:     778
 k-point  7 :   0.2500 0.1250 0.0000  plane waves:     782
 k-point  8 :   0.3750 0.1250 0.0000  plane waves:     787
 k-point  9 :   0.5000 0.1250 0.0000  plane waves:     800
 k-point 10 :   0.2500 0.2500 0.0000  plane waves:     784
 k-point 11 :   0.3750 0.2500 0.0000  plane waves:     788
 k-point 12 :   0.5000 0.2500 0.0000  plane waves:     782
 k-point 13 :   0.3750 0.3750 0.0000  plane waves:     788
 k-point 14 :   0.5000 0.3750 0.0000  plane waves:     788
 k-point 15 :   0.5000 0.5000 0.0000  plane waves:     784
 k-point 16 :   0.1250 0.1250 0.1250  plane waves:     787
 k-point 17 :   0.2500 0.1250 0.1250  plane waves:     791
 k-point 18 :   0.3750 0.1250 0.1250  plane waves:     792
 k-point 19 :   0.5000 0.1250 0.1250  plane waves:     792
 k-point 20 :   0.2500 0.2500 0.1250  plane waves:     784
 k-point 21 :   0.3750 0.2500 0.1250  plane waves:     785
 k-point 22 :   0.5000 0.2500 0.1250  plane waves:     788
 k-point 23 :   0.3750 0.3750 0.1250  plane waves:     794
 k-point 24 :   0.5000 0.3750 0.1250  plane waves:     790
 k-point 25 :   0.5000 0.5000 0.1250  plane waves:     796
 k-point 26 :   0.2500 0.2500 0.2500  plane waves:     784
 k-point 27 :   0.3750 0.2500 0.2500  plane waves:     790
 k-point 28 :   0.5000 0.2500 0.2500  plane waves:     780
 k-point 29 :   0.3750 0.3750 0.2500  plane waves:     784
 k-point 30 :   0.5000 0.3750 0.2500  plane waves:     784
 k-point 31 :   0.5000 0.5000 0.2500  plane waves:     788
 k-point 32 :   0.3750 0.3750 0.3750  plane waves:     786
 k-point 33 :   0.5000 0.3750 0.3750  plane waves:     786
 k-point 34 :   0.5000 0.5000 0.3750  plane waves:     780
 k-point 35 :   0.5000 0.5000 0.5000  plane waves:     840

 maximum and minimum number of plane-waves per node :       218      172

 maximum number of plane-waves:       840
 maximum index in each direction: 
   IXMAX=    5   IYMAX=    5   IZMAX=    5
   IXMIN=   -6   IYMIN=   -6   IZMIN=   -6


 parallel 3D FFT for wavefunctions:
    minimum data exchange during FFTs selected (reduces bandwidth)
 parallel 3D FFT for charge:
    minimum data exchange during FFTs selected (reduces bandwidth)


 total amount of memory used by VASP MPI-rank0    33440. kBytes
=======================================================================

   base      :      30000. kBytes
   nonl-proj :        502. kBytes
   fftplans  :        345. kBytes
   grid      :        794. kBytes
   one-center:         12. kBytes
   wavefun   :       1787. kBytes
 
     INWAV:  cpu time    0.0000: real time    0.0000
 Broyden mixing: mesh for mixing (old mesh)
   NGX = 11   NGY = 11   NGZ = 11
  (NGX  = 48   NGY  = 48   NGZ  = 48)
  gives a total of   1331 points

 charge density for first step will be calculated from the start-wavefunctions


--------------------------------------------------------------------------------------------------------


 Maximum index for augmentation-charges           286 (set IRDMAX)


--------------------------------------------------------------------------------------------------------


 initial charge from wavefunction
 First call to EWALD:  gamma=   0.505
 Maximum number of real-space cells 3x 3x 3
 Maximum number of reciprocal cells 3x 3x 3

    FEWALD:  cpu time    0.0004: real time    0.0005


--------------------------------------- Iteration      1(   1)  ---------------------------------------


    POTLOK:  cpu time    0.0210: real time    0.0235
    SETDIJ:  cpu time    0.0034: real time    0.0034
     EDDAV:  cpu time    0.5998: real time    0.6010
 BZINTS: Fermi energy: 14.514573; 32.000000 electrons
         Band energy: -33.512957;  BLOECHL correction: -0.034638
       DOS:  cpu time    0.0327: real time    0.0327
    --------------------------------------------
      LOOP:  cpu time    0.6569: real time    0.6606

 eigenvalue-minimisations  :  3984
 total energy-change (2. order) :-0.4787081E+02  (-0.1534961E+04)
 number of electron      31.9999999 magnetization      -0.0000000
 augmentation part       -0.1826374 magnetization      -0.0111144

 Free energy of the ion-electron system (eV)
  ---------------------------------------------------
  alpha Z        PSCENC =       120.39550375
  Ewald energy   TEWEN  =     -1413.59899669
  -Hartree energ DENC   =        -2.58221799
  -exchange      EXHF   =         0.00000000
  -V(xc)+E(xc)   XCENC  =       109.41487070
  PAW double counting   =       103.69076704     -108.69556966
  entropy T*S    EENTRO =         0.00000000
  eigenvalues    EBANDS =       -33.51295717
  atomic energy  EATOM  =      1177.01779097
  Solvation  Ediel_sol  =         0.00000000
  ---------------------------------------------------
  free energy    TOTEN  =       -47.87080904 eV

  energy without entropy =      -47.87080904  energy(sigma->0) =      -47.87080904


--------------------------------------------------------------------------------------------------------




--------------------------------------- Iteration      1(   2)  ---------------------------------------


     EDDAV:  cpu time    0.7152: real time    0.7176
 BZINTS: Fermi energy:  2.760508; 32.000000 electrons
         Band energy:-165.021668;  BLOECHL correction:  0.000000
       DOS:  cpu time    0.0077: real time    0.0077
    --------------------------------------------
      LOOP:  cpu time    0.7230: real time    0.7253

 eigenvalue-minimisations  :  5148
 total energy-change (2. order) :-0.1315087E+03  (-0.1251988E+03)
 number of electron      31.9999999 magnetization      -0.0000000
 augmentation part       -0.1826374 magnetization      -0.0111144

 Free energy of the ion-electron system (eV)
  ---------------------------------------------------
  alpha Z        PSCENC =       120.39550375
  Ewald energy   TEWEN  =     -1413.59899669
  -Hartree energ DENC   =        -2.58221799
  -exchange      EXHF   =         0.00000000
  -V(xc)+E(xc)   XCENC  =       109.41487070
  PAW double counting   =       103.69076704     -108.69556966
  entropy T*S    EENTRO =         0.00000000
  eigenvalues    EBANDS =      -165.02166847
  atomic energy  EATOM  =      1177.01779097
  Solvation  Ediel_sol  =         0.00000000
  ---------------------------------------------------
  free energy    TOTEN  =      -179.37952034 eV

  energy without entropy =     -179.37952034  energy(sigma->0) =     -179.37952034


--------------------------------------------------------------------------------------------------------




--------------------------------------- Iteration      1(   3)  ---------------------------------------


     EDDAV:  cpu time    0.7306: real time    0.7315
 BZINTS: Fermi energy:  1.957113; 32.000000 electrons
         Band energy:-170.307407;  BLOECHL correction:  0.000000
       DOS:  cpu time    0.0058: real time    0.0058
    --------------------------------------------
      LOOP:  cpu time    0.7364: real time    0.7373

 eigenvalue-minimisations  :  5264
 total energy-change (2. order) :-0.5285738E+01  (-0.5241499E+01)
 number of electron      31.9999999 magnetization      -0.0000000
 augmentation part       -0.1826374 magnetization      -0.0111144

 Free energy of the ion-electron system (eV)
  ---------------------------------------------------
  alpha Z        PSCENC =       120.39550375
  Ewald energy   TEWEN  =     -1413.59899669
  -Hartree energ DENC   =        -2.58221799
  -exchange      EXHF   =         0.00000000
  -V(xc)+E(xc)   XCENC  =       109.41487070
  PAW double counting   =       103.69076704     -108.69556966
  entropy T*S    EENTRO =         0.00000000
  eigenvalues    EBANDS =      -170.30740665
  atomic energy  EATOM  =      1177.01779097
  Solvation  Ediel_sol  =         0.00000000
  ---------------------------------------------------
  free energy    TOTEN  =      -184.66525852 eV

  energy without entropy =     -184.66525852  energy(sigma->0) =     -184.66525852


--------------------------------------------------------------------------------------------------------




--------------------------------------- Iteration      1(   4)  ---------------------------------------


     EDDAV:  cpu time    0.6996: real time    0.7003
 BZINTS: Fermi energy:  1.953950; 32.000000 electrons
         Band energy:-170.388202;  BLOECHL correction:  0.000000
       DOS:  cpu time    0.0058: real time    0.0058
    --------------------------------------------
      LOOP:  cpu time    0.7054: real time    0.7061

 eigenvalue-minimisations  :  4996
 total energy-change (2. order) :-0.8079569E-01  (-0.8052277E-01)
 number of electron      31.9999999 magnetization      -0.0000000
 augmentation part       -0.1826374 magnetization      -0.0111144

 Free energy of the ion-electron system (eV)
  ---------------------------------------------------
  alpha Z        PSCENC =       120.39550375
  Ewald energy   TEWEN  =     -1413.59899669
  -Hartree energ DENC   =        -2.58221799
  -exchange      EXHF   =         0.00000000
  -V(xc)+E(xc)   XCENC  =       109.41487070
  PAW double counting   =       103.69076704     -108.69556966
  entropy T*S    EENTRO =         0.00000000
  eigenvalues    EBANDS =      -170.38820234
  atomic energy  EATOM  =      1177.01779097
  Solvation  Ediel_sol  =         0.00000000
  ---------------------------------------------------
  free energy    TOTEN  =      -184.74605421 eV

  energy without entropy =     -184.74605421  energy(sigma->0) =     -184.74605421


--------------------------------------------------------------------------------------------------------




--------------------------------------- Iteration      1(   5)  ---------------------------------------


     EDDAV:  cpu time    0.7452: real time    0.7463
 BZINTS: Fermi energy:  1.953917; 32.000000 electrons
         Band energy:-170.390271;  BLOECHL correction:  0.000000
       DOS:  cpu time    0.0060: real time    0.0060
    CHARGE:  cpu time    0.0291: real time    0.0291
    MIXING:  cpu time    0.0004: real time    0.0004
    --------------------------------------------
      LOOP:  cpu time    0.7806: real time    0.7817

 eigenvalue-minimisations  :  5260
 total energy-change (2. order) :-0.2068333E-02  (-0.2067086E-02)
 number of electron      32.0000004 magnetization       0.0000000
 augmentation part        1.0057551 magnetization      -0.0001979

 Broyden mixing:
  rms(total) = 0.48282E+01    rms(broyden)= 0.48193E+01
  rms(prec ) = 0.12635E+02
  weight for this iteration     100.00

 Free energy of the ion-electron system (eV)
  ---------------------------------------------------
  alpha Z        PSCENC =       120.39550375
  Ewald energy   TEWEN  =     -1413.59899669
  -Hartree energ DENC   =        -2.58221799
  -exchange      EXHF   =         0.00000000
  -V(xc)+E(xc)   XCENC  =       109.41487070
  PAW double counting   =       103.69076704     -108.69556966
  entropy T*S    EENTRO =         0.00000000
  eigenvalues    EBANDS =      -170.39027067
  atomic energy  EATOM  =      1177.01779097
  Solvation  Ediel_sol  =         0.00000000
  ---------------------------------------------------
  free energy    TOTEN  =      -184.74812255 eV

  energy without entropy =     -184.74812255  energy(sigma->0) =     -184.74812255


--------------------------------------------------------------------------------------------------------




--------------------------------------- Iteration      1(   6)  ---------------------------------------


    POTLOK:  cpu time    0.0104: real time    0.0112
    SETDIJ:  cpu time    0.0031: real time    0.0031
     EDDAV:  cpu time    0.6208: real time    0.6209
 BZINTS: Fermi energy:  6.002664; 32.000000 electrons
         Band energy: -70.437018;  BLOECHL correction:  0.000000
       DOS:  cpu time    0.0070: real time    0.0070
    CHARGE:  cpu time    0.0296: real time    0.0296
    MIXING:  cpu time    0.0003: real time    0.0003
    --------------------------------------------
      LOOP:  cpu time    0.6711: real time    0.6720

 eigenvalue-minimisations  :  4292
 total energy-change (2. order) : 0.8228418E+02  (-0.4621826E+01)
 number of electron      32.0000004 magnetization      -0.0000000
 augmentation part        0.9000060 magnetization       0.0000614

 Broyden mixing:
  rms(total) = 0.25734E+01    rms(broyden)= 0.25733E+01
  rms(prec ) = 0.68290E+01
  weight for this iteration     100.00

 eigenvalues of (default mixing * dielectric matrix)
  average eigenvalue GAMMA=   2.0909
  2.0909

 Free energy of the ion-electron system (eV)
  ---------------------------------------------------
  alpha Z        PSCENC =       120.39550375
  Ewald energy   TEWEN  =     -1413.59899669
  -Hartree energ DENC   =       -18.44574015
  -exchange      EXHF   =         0.00000000
  -V(xc)+E(xc)   XCENC  =       111.15404468
  PAW double counting   =       276.68828690     -285.23781150
  entropy T*S    EENTRO =         0.00000000
  eigenvalues    EBANDS =       -70.43701803
  atomic energy  EATOM  =      1177.01779097
  Solvation  Ediel_sol  =         0.00000000
  ---------------------------------------------------
  free energy    TOTEN  =      -102.46394007 eV

  energy without entropy =     -102.46394007  energy(sigma->0) =     -102.46394007


--------------------------------------------------------------------------------------------------------




--------------------------------------- Iteration      1(   7)  ---------------------------------------


    POTLOK:  cpu time    0.0104: real time    0.0110
    SETDIJ:  cpu time    0.0031: real time    0.0031
     EDDAV:  cpu time    0.6556: real time    0.6556
 BZINTS: Fermi energy: 10.637304; 32.000000 electrons
         Band energy:  39.589979;  BLOECHL correction:  0.000000
       DOS:  cpu time    0.0069: real time    0.0069
    CHARGE:  cpu time    0.0292: real time    0.0292
    MIXING:  cpu time    0.0003: real time    0.0003
    --------------------------------------------
      LOOP:  cpu time    0.7055: real time    0.7061

 eigenvalue-minimisations  :  4656
 total energy-change (2. order) : 0.3018639E+02  (-0.5959129E+01)
 number of electron      32.0000003 magnetization       0.0000000
 augmentation part        0.7689851 magnetization      -0.0000555

 Broyden mixing:
  rms(total) = 0.34695E+00    rms(broyden)= 0.34485E+00
  rms(prec ) = 0.61121E+00
  weight for this iteration     100.00

 eigenvalues of (default mixing * dielectric matrix)
  average eigenvalue GAMMA=   1.9749
  1.9749  1.9749

 Free energy of the ion-electron system (eV)
  ---------------------------------------------------
  alpha Z        PSCENC =       120.39550375
  Ewald energy   TEWEN  =     -1413.59899669
  -Hartree energ DENC   =      -103.52084946
  -exchange      EXHF   =         0.00000000
  -V(xc)+E(xc)   XCENC  =       119.11369053
  PAW double counting   =       575.70840522     -586.98307281
  entropy T*S    EENTRO =         0.00000000
  eigenvalues    EBANDS =        39.58997912
  atomic energy  EATOM  =      1177.01779097
  Solvation  Ediel_sol  =         0.00000000
  ---------------------------------------------------
  free energy    TOTEN  =       -72.27754937 eV

  energy without entropy =      -72.27754937  energy(sigma->0) =      -72.27754937


--------------------------------------------------------------------------------------------------------




--------------------------------------- Iteration      1(   8)  ---------------------------------------


    POTLOK:  cpu time    0.0102: real time    0.0109
    SETDIJ:  cpu time    0.0031: real time    0.0031
     EDDAV:  cpu time    0.6713: real time    0.6713
 BZINTS: Fermi energy: 10.371047; 32.000000 electrons
         Band energy:  32.893721;  BLOECHL correction:  0.000000
       DOS:  cpu time    0.0068: real time    0.0068
    CHARGE:  cpu time    0.0293: real time    0.0293
    MIXING:  cpu time    0.0002: real time    0.0002
    --------------------------------------------
      LOOP:  cpu time    0.7210: real time    0.7217

 eigenvalue-minimisations  :  4808
 total energy-change (2. order) :-0.2529775E+00  (-0.1822488E+00)
 number of electron      32.0000003 magnetization      -0.0000000
 augmentation part        0.7904742 magnetization       0.0003166

 Broyden mixing:
  rms(total) = 0.12997E+00    rms(broyden)= 0.12984E+00
  rms(prec ) = 0.31774E+00
  weight for this iteration     100.00

 eigenvalues of (default mixing * dielectric matrix)
  average eigenvalue GAMMA=   1.7519
  2.2632  2.2632  0.7293

 Free energy of the ion-electron system (eV)
  ---------------------------------------------------
  alpha Z        PSCENC =       120.39550375
  Ewald energy   TEWEN  =     -1413.59899669
  -Hartree energ DENC   =       -97.44059170
  -exchange      EXHF   =         0.00000000
  -V(xc)+E(xc)   XCENC  =       118.51890194
  PAW double counting   =       540.22846469     -550.54532128
  entropy T*S    EENTRO =         0.00000000
  eigenvalues    EBANDS =        32.89372143
  atomic energy  EATOM  =      1177.01779097
  Solvation  Ediel_sol  =         0.00000000
  ---------------------------------------------------
  free energy    TOTEN  =       -72.53052689 eV

  energy without entropy =      -72.53052689  energy(sigma->0) =      -72.53052689


--------------------------------------------------------------------------------------------------------




--------------------------------------- Iteration      1(   9)  ---------------------------------------


    POTLOK:  cpu time    0.0105: real time    0.0111
    SETDIJ:  cpu time    0.0031: real time    0.0031
     EDDAV:  cpu time    0.6509: real time    0.6510
 BZINTS: Fermi energy: 10.504387; 32.000000 electrons
         Band energy:  36.943692;  BLOECHL correction:  0.000000
       DOS:  cpu time    0.0068: real time    0.0068
    CHARGE:  cpu time    0.0294: real time    0.0294
    MIXING:  cpu time    0.0003: real time    0.0003
    --------------------------------------------
      LOOP:  cpu time    0.7010: real time    0.7016

 eigenvalue-minimisations  :  4596
 total energy-change (2. order) :-0.3989334E-01  (-0.1344989E-01)
 number of electron      32.0000003 magnetization      -0.0000000
 augmentation part        0.7878173 magnetization      -0.0003644

 Broyden mixing:
  rms(total) = 0.24177E-01    rms(broyden)= 0.24102E-01
  rms(prec ) = 0.48926E-01
  weight for this iteration     100.00

 eigenvalues of (default mixing * dielectric matrix)
  average eigenvalue GAMMA=   1.6329
  2.8003  2.0064  1.0198  0.7051

 Free energy of the ion-electron system (eV)
  ---------------------------------------------------
  alpha Z        PSCENC =       120.39550375
  Ewald energy   TEWEN  =     -1413.59899669
  -Hartree energ DENC   =      -102.08709275
  -exchange      EXHF   =         0.00000000
  -V(xc)+E(xc)   XCENC  =       118.96590322
  PAW double counting   =       549.28378929     -559.49101051
  entropy T*S    EENTRO =         0.00000000
  eigenvalues    EBANDS =        36.94369249
  atomic energy  EATOM  =      1177.01779097
  Solvation  Ediel_sol  =         0.00000000
  ---------------------------------------------------
  free energy    TOTEN  =       -72.57042023 eV

  energy without entropy =      -72.57042023  energy(sigma->0) =      -72.57042023


--------------------------------------------------------------------------------------------------------




--------------------------------------- Iteration      1(  10)  ---------------------------------------


    POTLOK:  cpu time    0.0099: real time    0.0110
    SETDIJ:  cpu time    0.0032: real time    0.0032
     EDDAV:  cpu time    0.6455: real time    0.6455
 BZINTS: Fermi energy: 10.537573; 32.000000 electrons
         Band energy:  37.839736;  BLOECHL correction:  0.000000
       DOS:  cpu time    0.0068: real time    0.0068
    CHARGE:  cpu time    0.0292: real time    0.0292
    MIXING:  cpu time    0.0003: real time    0.0003
    --------------------------------------------
      LOOP:  cpu time    0.6948: real time    0.6960

 eigenvalue-minimisations  :  4592
 total energy-change (2. order) :-0.1103639E-01  (-0.1520010E-02)
 number of electron      32.0000003 magnetization       0.0000000
 augmentation part        0.7870563 magnetization       0.0000121

 Broyden mixing:
  rms(total) = 0.84669E-02    rms(broyden)= 0.84399E-02
  rms(prec ) = 0.14504E-01
  weight for this iteration     100.00

 eigenvalues of (default mixing * dielectric matrix)
  average eigenvalue GAMMA=   1.5448
  2.9344  1.9350  1.4314  0.7115  0.7115

 Free energy of the ion-electron system (eV)
  ---------------------------------------------------
  alpha Z        PSCENC =       120.39550375
  Ewald energy   TEWEN  =     -1413.59899669
  -Hartree energ DENC   =      -103.07957142
  -exchange      EXHF   =         0.00000000
  -V(xc)+E(xc)   XCENC  =       119.05831140
  PAW double counting   =       551.80192345     -562.01615394
  entropy T*S    EENTRO =         0.00000000
  eigenvalues    EBANDS =        37.83973587
  atomic energy  EATOM  =      1177.01779097
  Solvation  Ediel_sol  =         0.00000000
  ---------------------------------------------------
  free energy    TOTEN  =       -72.58145661 eV

  energy without entropy =      -72.58145661  energy(sigma->0) =      -72.58145661


--------------------------------------------------------------------------------------------------------




--------------------------------------- Iteration      1(  11)  ---------------------------------------


    POTLOK:  cpu time    0.0103: real time    0.0109
    SETDIJ:  cpu time    0.0030: real time    0.0030
     EDDAV:  cpu time    0.6676: real time    0.6676
 BZINTS: Fermi energy: 10.538585; 32.000000 electrons
         Band energy:  37.860195;  BLOECHL correction:  0.000000
       DOS:  cpu time    0.0068: real time    0.0068
    CHARGE:  cpu time    0.0298: real time    0.0298
    MIXING:  cpu time    0.0003: real time    0.0003
    --------------------------------------------
      LOOP:  cpu time    0.7179: real time    0.7186

 eigenvalue-minimisations  :  4800
 total energy-change (2. order) :-0.5876022E-03  (-0.3661494E-04)
 number of electron      32.0000003 magnetization       0.0000000
 augmentation part        0.7869494 magnetization       0.0000356

 Broyden mixing:
  rms(total) = 0.51765E-02    rms(broyden)= 0.51739E-02
  rms(prec ) = 0.10746E-01
  weight for this iteration     100.00

 eigenvalues of (default mixing * dielectric matrix)
  average eigenvalue GAMMA=   1.5834
  2.9633  2.1111  2.1111  0.9178  0.7427  0.6543

 Free energy of the ion-electron system (eV)
  ---------------------------------------------------
  alpha Z        PSCENC =       120.39550375
  Ewald energy   TEWEN  =     -1413.59899669
  -Hartree energ DENC   =      -103.07939096
  -exchange      EXHF   =         0.00000000
  -V(xc)+E(xc)   XCENC  =       119.05766073
  PAW double counting   =       552.25118418     -562.48599099
  entropy T*S    EENTRO =         0.00000000
  eigenvalues    EBANDS =        37.86019480
  atomic energy  EATOM  =      1177.01779097
  Solvation  Ediel_sol  =         0.00000000
  ---------------------------------------------------
  free energy    TOTEN  =       -72.58204422 eV

  energy without entropy =      -72.58204422  energy(sigma->0) =      -72.58204422


--------------------------------------------------------------------------------------------------------




--------------------------------------- Iteration      1(  12)  ---------------------------------------


    POTLOK:  cpu time    0.0103: real time    0.0110
    SETDIJ:  cpu time    0.0031: real time    0.0031
     EDDAV:  cpu time    0.6289: real time    0.6290
 BZINTS: Fermi energy: 10.534233; 32.000000 electrons
         Band energy:  37.740765;  BLOECHL correction:  0.000000
       DOS:  cpu time    0.0067: real time    0.0067
    CHARGE:  cpu time    0.0290: real time    0.0290
    MIXING:  cpu time    0.0003: real time    0.0003
    --------------------------------------------
      LOOP:  cpu time    0.6782: real time    0.6790

 eigenvalue-minimisations  :  4416
 total energy-change (2. order) :-0.3198664E-03  (-0.1709546E-04)
 number of electron      32.0000003 magnetization       0.0000000
 augmentation part        0.7869979 magnetization       0.0000078

 Broyden mixing:
  rms(total) = 0.10363E-02    rms(broyden)= 0.10363E-02
  rms(prec ) = 0.22166E-02
  weight for this iteration     100.00

 eigenvalues of (default mixing * dielectric matrix)
  average eigenvalue GAMMA=   1.4993
  2.8557  2.5471  2.0012  1.0064  0.7247  0.7247  0.6354

 Free energy of the ion-electron system (eV)
  ---------------------------------------------------
  alpha Z        PSCENC =       120.39550375
  Ewald energy   TEWEN  =     -1413.59899669
  -Hartree energ DENC   =      -102.93470771
  -exchange      EXHF   =         0.00000000
  -V(xc)+E(xc)   XCENC  =       119.04365619
  PAW double counting   =       552.16602014     -562.41239615
  entropy T*S    EENTRO =         0.00000000
  eigenvalues    EBANDS =        37.74076542
  atomic energy  EATOM  =      1177.01779097
  Solvation  Ediel_sol  =         0.00000000
  ---------------------------------------------------
  free energy    TOTEN  =       -72.58236408 eV

  energy without entropy =      -72.58236408  energy(sigma->0) =      -72.58236408


--------------------------------------------------------------------------------------------------------




--------------------------------------- Iteration      1(  13)  ---------------------------------------


    POTLOK:  cpu time    0.0104: real time    0.0110
    SETDIJ:  cpu time    0.0032: real time    0.0032
     EDDAV:  cpu time    0.6652: real time    0.6653
 BZINTS: Fermi energy: 10.533042; 32.000000 electrons
         Band energy:  37.705340;  BLOECHL correction:  0.000000
       DOS:  cpu time    0.0067: real time    0.0067
    CHARGE:  cpu time    0.0290: real time    0.0290
    MIXING:  cpu time    0.0004: real time    0.0004
    --------------------------------------------
      LOOP:  cpu time    0.7149: real time    0.7156

 eigenvalue-minimisations  :  4736
 total energy-change (2. order) :-0.8636583E-05  (-0.1047071E-05)
 number of electron      32.0000003 magnetization       0.0000000
 augmentation part        0.7870249 magnetization       0.0000019

 Broyden mixing:
  rms(total) = 0.18976E-03    rms(broyden)= 0.18936E-03
  rms(prec ) = 0.27407E-03
  weight for this iteration     100.00

 eigenvalues of (default mixing * dielectric matrix)
  average eigenvalue GAMMA=   1.4401
  2.7197  2.7197  1.9773  1.1468  0.8158  0.8158  0.6388  0.6870

 Free energy of the ion-electron system (eV)
  ---------------------------------------------------
  alpha Z        PSCENC =       120.39550375
  Ewald energy   TEWEN  =     -1413.59899669
  -Hartree energ DENC   =      -102.89544390
  -exchange      EXHF   =         0.00000000
  -V(xc)+E(xc)   XCENC  =       119.03994185
  PAW double counting   =       552.08000019     -562.32650879
  entropy T*S    EENTRO =         0.00000000
  eigenvalues    EBANDS =        37.70533990
  atomic energy  EATOM  =      1177.01779097
  Solvation  Ediel_sol  =         0.00000000
  ---------------------------------------------------
  free energy    TOTEN  =       -72.58237272 eV

  energy without entropy =      -72.58237272  energy(sigma->0) =      -72.58237272


--------------------------------------------------------------------------------------------------------




--------------------------------------- Iteration      1(  14)  ---------------------------------------


    POTLOK:  cpu time    0.0103: real time    0.0110
    SETDIJ:  cpu time    0.0031: real time    0.0031
     EDDAV:  cpu time    0.5099: real time    0.5099
 BZINTS: Fermi energy: 10.532867; 32.000000 electrons
         Band energy:  37.701118;  BLOECHL correction:  0.000000
       DOS:  cpu time    0.0067: real time    0.0067
    --------------------------------------------
      LOOP:  cpu time    0.5300: real time    0.5307

 eigenvalue-minimisations  :  3104
 total energy-change (2. order) :-0.6639795E-06  (-0.3850474E-07)
 number of electron      32.0000003 magnetization       0.0000000
 augmentation part        0.7870249 magnetization       0.0000019

 Free energy of the ion-electron system (eV)
  ---------------------------------------------------
  alpha Z        PSCENC =       120.39550375
  Ewald energy   TEWEN  =     -1413.59899669
  -Hartree energ DENC   =      -102.89108229
  -exchange      EXHF   =         0.00000000
  -V(xc)+E(xc)   XCENC  =       119.03953734
  PAW double counting   =       552.06651088     -562.31275548
  entropy T*S    EENTRO =         0.00000000
  eigenvalues    EBANDS =        37.70111815
  atomic energy  EATOM  =      1177.01779097
  Solvation  Ediel_sol  =         0.00000000
  ---------------------------------------------------
  free energy    TOTEN  =       -72.58237338 eV

  energy without entropy =      -72.58237338  energy(sigma->0) =      -72.58237338


--------------------------------------------------------------------------------------------------------




 average (electrostatic) potential at core
  the test charge radii are     0.6991
  (the norm of the test charge is              1.0000)
       1 -44.6942       2 -44.6941       3 -44.6941       4 -44.6941       5 -44.6941
       6 -44.6939       7 -44.6939       8 -44.6939
 
 
 
 E-fermi :  10.5329     XC(G=0): -13.4574     alpha+bet :-18.5421


 spin component 1

 k-point     1 :       0.0000    0.0000    0.0000
  band No.  band energies     occupation 
      1     -11.6709      1.00000
      2      -2.6587      1.00000
      3      -2.6587      1.00000
      4      -2.6587      1.00000
      5      -2.6586      1.00000
      6      -2.6586      1.00000
      7      -2.6586      1.00000
      8       3.8603      1.00000
      9       3.8603      1.00000
     10       3.8603      1.00000
     11       3.8603      1.00000
     12       3.8604      1.00000
     13       3.8604      1.00000
     14      10.4584      1.00000
     15      10.4584      1.00000
     16      10.4585      1.00000
     17      15.3032      0.00000
     18      15.3032      0.00000
     19      15.3032      0.00000
     20      15.3032      0.00000
     21      15.3032      0.00000
     22      15.3033      0.00000
     23      16.1757      0.00000
     24      16.1757      0.00000
     25      16.1757      0.00000
     26      24.8491      0.00000
     27      28.0570      0.00000
     28      28.0570      0.00000

 k-point     2 :       0.1250    0.0000    0.0000
  band No.  band energies     occupation 
      1     -11.5220      1.00000
      2      -4.6519      1.00000
      3      -2.5612      1.00000
      4      -2.5612      1.00000
      5      -2.5612      1.00000
      6      -2.5611      1.00000
      7      -0.5252      1.00000
      8       3.5370      1.00000
      9       3.5370      1.00000
     10       3.5370      1.00000
     11       3.5370      1.00000
     12       4.0049      1.00000
     13       4.0049      1.00000
     14       9.8706      1.00000
     15       9.8706      1.00000
     16      10.1078      1.00000
     17      14.8446      0.00000
     18      15.9031      0.00000
     19      15.9032      0.00000
     20      15.9032      0.00000
     21      15.9032      0.00000
     22      16.0707      0.00000
     23      16.1015      0.00000
     24      16.9017      0.00000
     25      16.9017      0.00000
     26      24.9172      0.00000
     27      27.5412      0.00000
     28      27.5683      0.00000

 k-point     3 :       0.2500    0.0000    0.0000
  band No.  band energies     occupation 
      1     -11.0764      1.00000
      2      -6.4481      1.00000
      3      -2.2940      1.00000
      4      -2.2940      1.00000
      5      -2.2940      1.00000
      6      -2.2939      1.00000
      7       1.6723      1.00000
      8       2.7889      1.00000
      9       2.7889      1.00000
     10       2.7890      1.00000
     11       2.7890      1.00000
     12       4.4391      1.00000
     13       4.4391      1.00000
     14       8.6358      1.00000
     15       8.6359      1.00000
     16       9.1234      1.00000
     17      14.6799      0.00000
     18      15.7607      0.00000
     19      17.3024      0.00000
     20      17.4915      0.00000
     21      17.4915      0.00000
     22      17.4915      0.00000
     23      17.4916      0.00000
     24      18.5250      0.00000
     25      18.5250      0.00000
     26      24.6498      0.00000
     27      26.2334      0.00000
     28      26.2360      0.00000

 k-point     4 :       0.3750    0.0000    0.0000
  band No.  band energies     occupation 
      1     -10.3375      1.00000
      2      -8.0097      1.00000
      3      -1.9606      1.00000
      4      -1.9606      1.00000
      5      -1.9606      1.00000
      6      -1.9605      1.00000
      7       2.0388      1.00000
      8       2.0388      1.00000
      9       2.0389      1.00000
     10       2.0389      1.00000
     11       3.8389      1.00000
     12       5.1531      1.00000
     13       5.1531      1.00000
     14       7.3174      1.00000
     15       7.3175      1.00000
     16       7.6666      1.00000
     17      14.7562      0.00000
     18      15.3731      0.00000
     19      18.9455      0.00000
     20      19.6300      0.00000
     21      19.6300      0.00000
     22      19.6300      0.00000
     23      19.6301      0.00000
     24      20.4786      0.00000
     25      20.4786      0.00000
     26      23.1811      0.00000
     27      24.4684      0.00000
     28      24.4684      0.00000

 k-point     5 :       0.5000    0.0000    0.0000
  band No.  band energies     occupation 
      1      -9.3119      1.00000
      2      -9.3118      1.00000
      3      -1.7905      1.00000
      4      -1.7905      1.00000
      5      -1.7905      1.00000
      6      -1.7904      1.00000
      7       1.7115      1.00000
      8       1.7115      1.00000
      9       1.7115      1.00000
     10       1.7115      1.00000
     11       5.8678      1.00000
     12       5.8678      1.00000
     13       6.1239      1.00000
     14       6.1240      1.00000
     15       6.1241      1.00000
     16       6.1241      1.00000
     17      15.0063      0.00000
     18      15.0064      0.00000
     19      20.9952      0.00000
     20      20.9953      0.00000
     21      21.2955      0.00000
     22      21.2955      0.00000
     23      21.2955      0.00000
     24      21.2956      0.00000
     25      22.4926      0.00000
     26      22.4927      0.00000
     27      22.4927      0.00000
     28      22.4930      0.00000

 k-point     6 :       0.1250    0.1250    0.0000
  band No.  band energies     occupation 
      1     -11.3733      1.00000
      2      -4.5298      1.00000
      3      -4.5298      1.00000
      4      -2.5545      1.00000
      5      -2.3938      1.00000
      6      -0.4811      1.00000
      7      -0.4810      1.00000
      8       2.5274      1.00000
      9       3.6445      1.00000
     10       3.6445      1.00000
     11       3.7502      1.00000
     12       3.7503      1.00000
     13       4.1107      1.00000
     14       8.9840      1.00000
     15       9.3244      1.00000
     16      10.2726      1.00000
     17      15.4650      0.00000
     18      15.4650      0.00000
     19      15.5401      0.00000
     20      16.4864      0.00000
     21      16.6766      0.00000
     22      16.6767      0.00000
     23      17.0659      0.00000
     24      17.2862      0.00000
     25      17.3716      0.00000
     26      25.0204      0.00000
     27      26.9946      0.00000
     28      26.9985      0.00000

 k-point     7 :       0.2500    0.1250    0.0000
  band No.  band energies     occupation 
      1     -10.9284      1.00000
      2      -6.3138      1.00000
      3      -4.1743      1.00000
      4      -2.4731      1.00000
      5      -2.0342      1.00000
      6      -0.4131      1.00000
      7       1.5089      1.00000
      8       1.5852      1.00000
      9       2.7927      1.00000
     10       3.2169      1.00000
     11       4.0397      1.00000
     12       4.0539      1.00000
     13       4.3305      1.00000
     14       7.6694      1.00000
     15       8.1441      1.00000
     16       9.6651      1.00000
     17      15.3120      0.00000
     18      16.3593      0.00000
     19      16.3620      0.00000
     20      17.0962      0.00000
     21      17.8388      0.00000
     22      18.1946      0.00000
     23      18.5023      0.00000
     24      18.5955      0.00000
     25      19.3159      0.00000
     26      24.8612      0.00000
     27      25.5127      0.00000
     28      25.6029      0.00000

 k-point     8 :       0.3750    0.1250    0.0000
  band No.  band energies     occupation 
      1     -10.1908      1.00000
      2      -7.8690      1.00000
      3      -3.6292      1.00000
      4      -2.5582      1.00000
      5      -1.5148      1.00000
      6      -0.5190      1.00000
      7       0.9393      1.00000
      8       1.8403      1.00000
      9       2.8797      1.00000
     10       3.4278      1.00000
     11       3.5481      1.00000
     12       4.7467      1.00000
     13       5.3758      1.00000
     14       6.2896      1.00000
     15       6.8588      1.00000
     16       8.4212      1.00000
     17      15.3924      0.00000
     18      15.9942      0.00000
     19      18.0954      0.00000
     20      19.3113      0.00000
     21      19.4300      0.00000
     22      20.1140      0.00000
     23      20.2392      0.00000
     24      20.4442      0.00000
     25      21.5995      0.00000
     26      23.5270      0.00000
     27      23.5745      0.00000
     28      23.8931      0.00000

 k-point     9 :       0.5000    0.1250    0.0000
  band No.  band energies     occupation 
      1      -9.1674      1.00000
      2      -9.1673      1.00000
      3      -3.0082      1.00000
      4      -3.0081      1.00000
      5      -0.9403      1.00000
      6      -0.9402      1.00000
      7       1.1115      1.00000
      8       1.1115      1.00000
      9       3.0400      1.00000
     10       3.0400      1.00000
     11       4.9244      1.00000
     12       4.9244      1.00000
     13       5.6959      1.00000
     14       5.6959      1.00000
     15       6.8664      1.00000
     16       6.8665      1.00000
     17      15.6401      0.00000
     18      15.6402      0.00000
     19      20.1312      0.00000
     20      20.1312      0.00000
     21      21.4035      0.00000
     22      21.4035      0.00000
     23      21.6715      0.00000
     24      21.6716      0.00000
     25      22.0705      0.00000
     26      22.0720      0.00000
     27      22.4944      0.00000
     28      22.4944      0.00000

 k-point    10 :       0.2500    0.2500    0.0000
  band No.  band energies     occupation 
      1     -10.4856      1.00000
      2      -5.9167      1.00000
      3      -5.9167      1.00000
      4      -2.8148      1.00000
      5      -1.6021      1.00000
      6       0.6726      1.00000
      7       1.2359      1.00000
      8       1.2359      1.00000
      9       3.1398      1.00000
     10       3.1398      1.00000
     11       4.2177      1.00000
     12       4.2178      1.00000
     13       4.8386      1.00000
     14       6.3424      1.00000
     15       7.0428      1.00000
     16       9.6703      1.00000
     17      16.2443      0.00000
     18      16.9534      0.00000
     19      16.9534      0.00000
     20      17.3893      0.00000
     21      18.8134      0.00000
     22      18.9482      0.00000
     23      19.2357      0.00000
     24      19.2357      0.00000
     25      21.5490      0.00000
     26      24.0197      0.00000
     27      24.0198      0.00000
     28      25.0862      0.00000

 k-point    11 :       0.3750    0.2500    0.0000
  band No.  band energies     occupation 
      1      -9.7522      1.00000
      2      -7.4499      1.00000
      3      -5.2768      1.00000
      4      -3.5359      1.00000
      5      -0.9869      1.00000
      6       0.5752      1.00000
      7       0.6134      1.00000
      8       2.0916      1.00000
      9       2.5546      1.00000
     10       3.7867      1.00000
     11       4.3699      1.00000
     12       4.9902      1.00000
     13       5.0106      1.00000
     14       5.7614      1.00000
     15       5.8141      1.00000
     16       8.8600      1.00000
     17      17.0202      0.00000
     18      17.2449      0.00000
     19      17.4687      0.00000
     20      19.1695      0.00000
     21      19.7459      0.00000
     22      20.4212      0.00000
     23      20.4677      0.00000
     24      20.5934      0.00000
     25      22.5688      0.00000
     26      22.6844      0.00000
     27      23.6117      0.00000
     28      24.1506      0.00000

 k-point    12 :       0.5000    0.2500    0.0000
  band No.  band energies     occupation 
      1      -8.7359      1.00000
      2      -8.7358      1.00000
      3      -4.4430      1.00000
      4      -4.4429      1.00000
      5      -0.2274      1.00000
      6      -0.2274      1.00000
      7       1.1784      1.00000
      8       1.1784      1.00000
      9       3.7567      1.00000
     10       3.7568      1.00000
     11       4.6969      1.00000
     12       4.6970      1.00000
     13       4.7172      1.00000
     14       4.7173      1.00000
     15       7.4466      1.00000
     16       7.4467      1.00000
     17      17.2247      0.00000
     18      17.2248      0.00000
     19      19.0181      0.00000
     20      19.0181      0.00000
     21      20.8465      0.00000
     22      20.8465      0.00000
     23      21.5901      0.00000
     24      21.5901      0.00000
     25      22.4935      0.00000
     26      22.4936      0.00000
     27      22.6694      0.00000
     28      22.6695      0.00000

 k-point    13 :       0.3750    0.3750    0.0000
  band No.  band energies     occupation 
      1      -9.0268      1.00000
      2      -6.7635      1.00000
      3      -6.7635      1.00000
      4      -4.7162      1.00000
      5      -0.2947      1.00000
      6       0.9445      1.00000
      7       1.5457      1.00000
      8       1.5457      1.00000
      9       2.6847      1.00000
     10       2.6847      1.00000
     11       3.7487      1.00000
     12       4.6334      1.00000
     13       5.9539      1.00000
     14       6.1132      1.00000
     15       6.1133      1.00000
     16       8.6254      1.00000
     17      17.3456      0.00000
     18      18.8515      0.00000
     19      19.1696      0.00000
     20      19.1696      0.00000
     21      19.4182      0.00000
     22      20.0807      0.00000
     23      20.0807      0.00000
     24      20.9004      0.00000
     25      23.0809      0.00000
     26      23.0809      0.00000
     27      23.0887      0.00000
     28      24.6586      0.00000

 k-point    14 :       0.5000    0.3750    0.0000
  band No.  band energies     occupation 
      1      -8.0247      1.00000
      2      -8.0246      1.00000
      3      -5.8344      1.00000
      4      -5.8343      1.00000
      5       0.5644      1.00000
      6       0.5644      1.00000
      7       1.6870      1.00000
      8       1.6871      1.00000
      9       2.5856      1.00000
     10       2.5856      1.00000
     11       3.5536      1.00000
     12       3.5537      1.00000
     13       6.2656      1.00000
     14       6.2657      1.00000
     15       7.6492      1.00000
     16       7.6493      1.00000
     17      18.4323      0.00000
     18      18.4324      0.00000
     19      19.1951      0.00000
     20      19.1952      0.00000
     21      19.5476      0.00000
     22      19.5476      0.00000
     23      21.4030      0.00000
     24      21.4030      0.00000
     25      22.6107      0.00000
     26      22.6107      0.00000
     27      24.1672      0.00000
     28      24.1870      0.00000

 k-point    15 :       0.5000    0.5000    0.0000
  band No.  band energies     occupation 
      1      -7.0481      1.00000
      2      -7.0479      1.00000
      3      -7.0479      1.00000
      4      -7.0479      1.00000
      5       1.5044      1.00000
      6       1.5044      1.00000
      7       1.5045      1.00000
      8       1.5045      1.00000
      9       2.5092      1.00000
     10       2.5093      1.00000
     11       2.5093      1.00000
     12       2.5093      1.00000
     13       7.2995      1.00000
     14       7.2995      1.00000
     15       7.2996      1.00000
     16       7.2997      1.00000
     17      18.6174      0.00000
     18      18.6174      0.00000
     19      18.6174      0.00000
     20      18.6175      0.00000
     21      20.8032      0.00000
     22      20.8032      0.00000
     23      20.8032      0.00000
     24      20.8032      0.00000
     25      23.3264      0.00000
     26      23.3265      0.00000
     27      23.3265      0.00000
     28      23.3265      0.00000

 k-point    16 :       0.1250    0.1250    0.1250
  band No.  band energies     occupation 
      1     -11.2248      1.00000
      2      -4.4123      1.00000
      3      -4.4123      1.00000
      4      -4.4123      1.00000
      5      -0.4782      1.00000
      6      -0.4782      1.00000
      7      -0.4782      1.00000
      8       2.7583      1.00000
      9       2.7584      1.00000
     10       2.7584      1.00000
     11       4.2514      1.00000
     12       4.2514      1.00000
     13       4.2514      1.00000
     14       7.9478      1.00000
     15       9.7693      1.00000
     16       9.7693      1.00000
     17      15.5288      0.00000
     18      15.5288      0.00000
     19      15.5288      0.00000
     20      17.0846      0.00000
     21      17.0846      0.00000
     22      17.5725      0.00000
     23      17.6251      0.00000
     24      17.6251      0.00000
     25      17.6252      0.00000
     26      25.1502      0.00000
     27      26.7935      0.00000
     28      26.8129      0.00000

 k-point    17 :       0.2500    0.1250    0.1250
  band No.  band energies     occupation 
      1     -10.7806      1.00000
      2      -6.1813      1.00000
      3      -4.0781      1.00000
      4      -4.0781      1.00000
      5      -0.5964      1.00000
      6      -0.5964      1.00000
      7       1.3367      1.00000
      8       1.9412      1.00000
      9       1.9413      1.00000
     10       3.5517      1.00000
     11       4.1981      1.00000
     12       4.1982      1.00000
     13       4.6732      1.00000
     14       6.5561      1.00000
     15       8.6614      1.00000
     16       9.4642      1.00000
     17      15.5778      0.00000
     18      16.4262      0.00000
     19      16.4262      0.00000
     20      16.8370      0.00000
     21      18.4887      0.00000
     22      18.5634      0.00000
     23      18.5937      0.00000
     24      19.5542      0.00000
     25      19.5542      0.00000
     26      25.1085      0.00000
     27      25.4579      0.00000
     28      25.5376      0.00000

 k-point    18 :       0.3750    0.1250    0.1250
  band No.  band energies     occupation 
      1     -10.0444      1.00000
      2      -7.7290      1.00000
      3      -3.6136      1.00000
      4      -3.6136      1.00000
      5      -1.0336      1.00000
      6      -1.0336      1.00000
      7       1.6737      1.00000
      8       1.6738      1.00000
      9       2.7215      1.00000
     10       3.7939      1.00000
     11       3.7939      1.00000
     12       5.0270      1.00000
     13       5.1821      1.00000
     14       5.3654      1.00000
     15       7.4303      1.00000
     16       8.3623      1.00000
     17      15.7625      0.00000
     18      16.4531      0.00000
     19      18.1660      0.00000
     20      18.1660      0.00000
     21      20.0154      0.00000
     22      20.1832      0.00000
     23      20.2133      0.00000
     24      21.6453      0.00000
     25      21.6454      0.00000
     26      23.5793      0.00000
     27      23.5800      0.00000
     28      23.8526      0.00000

 k-point    19 :       0.5000    0.1250    0.1250
  band No.  band energies     occupation 
      1      -9.0233      1.00000
      2      -9.0232      1.00000
      3      -3.3323      1.00000
      4      -3.3322      1.00000
      5      -1.3633      1.00000
      6      -1.3632      1.00000
      7       1.7084      1.00000
      8       1.7085      1.00000
      9       3.5487      1.00000
     10       3.5488      1.00000
     11       3.9159      1.00000
     12       3.9160      1.00000
     13       6.2994      1.00000
     14       6.2995      1.00000
     15       6.7812      1.00000
     16       6.7812      1.00000
     17      16.0692      0.00000
     18      16.0693      0.00000
     19      19.8120      0.00000
     20      19.8120      0.00000
     21      21.2033      0.00000
     22      21.2034      0.00000
     23      21.8732      0.00000
     24      21.8733      0.00000
     25      22.0412      0.00000
     26      22.0412      0.00000
     27      22.0592      0.00000
     28      22.0592      0.00000

 k-point    20 :       0.2500    0.2500    0.1250
  band No.  band energies     occupation 
      1     -10.3386      1.00000
      2      -5.7909      1.00000
      3      -5.7908      1.00000
      4      -3.8518      1.00000
      5      -1.2176      1.00000
      6       0.5601      1.00000
      7       0.5601      1.00000
      8       1.6050      1.00000
      9       3.2179      1.00000
     10       3.2180      1.00000
     11       4.7141      1.00000
     12       4.7141      1.00000
     13       4.9663      1.00000
     14       5.1300      1.00000
     15       8.0021      1.00000
     16       9.3727      1.00000
     17      16.3537      0.00000
     18      16.6119      0.00000
     19      16.6119      0.00000
     20      17.6882      0.00000
     21      18.6967      0.00000
     22      18.9243      0.00000
     23      20.2587      0.00000
     24      20.2588      0.00000
     25      21.7186      0.00000
     26      24.0221      0.00000
     27      24.0222      0.00000
     28      24.9411      0.00000

 k-point    21 :       0.3750    0.2500    0.1250
  band No.  band energies     occupation 
      1      -9.6067      1.00000
      2      -7.3126      1.00000
      3      -5.1714      1.00000
      4      -3.8306      1.00000
      5      -1.7152      1.00000
      6      -0.4592      1.00000
      7       1.5046      1.00000
      8       1.8831      1.00000
      9       2.9335      1.00000
     10       3.7636      1.00000
     11       4.6565      1.00000
     12       4.6835      1.00000
     13       5.1246      1.00000
     14       5.7911      1.00000
     15       6.8973      1.00000
     16       8.6755      1.00000
     17      16.9066      0.00000
     18      17.3544      0.00000
     19      17.6207      0.00000
     20      18.3599      0.00000
     21      19.7227      0.00000
     22      20.1450      0.00000
     23      21.3124      0.00000
     24      21.3494      0.00000
     25      22.5895      0.00000
     26      23.0574      0.00000
     27      23.0839      0.00000
     28      23.9555      0.00000

 k-point    22 :       0.5000    0.2500    0.1250
  band No.  band energies     occupation 
      1      -8.5933      1.00000
      2      -8.5932      1.00000
      3      -4.4128      1.00000
      4      -4.4127      1.00000
      5      -1.3504      1.00000
      6      -1.3503      1.00000
      7       2.4202      1.00000
      8       2.4203      1.00000
      9       2.5476      1.00000
     10       2.5477      1.00000
     11       4.8992      1.00000
     12       4.8992      1.00000
     13       5.7839      1.00000
     14       5.7840      1.00000
     15       7.3406      1.00000
     16       7.3406      1.00000
     17      17.2662      0.00000
     18      17.2663      0.00000
     19      19.0177      0.00000
     20      19.0178      0.00000
     21      20.9143      0.00000
     22      20.9144      0.00000
     23      20.9952      0.00000
     24      20.9952      0.00000
     25      22.0074      0.00000
     26      22.0075      0.00000
     27      23.1847      0.00000
     28      23.1854      0.00000

 k-point    23 :       0.3750    0.3750    0.1250
  band No.  band energies     occupation 
      1      -8.8834      1.00000
      2      -6.6336      1.00000
      3      -6.6335      1.00000
      4      -4.6818      1.00000
      5      -1.5458      1.00000
      6       0.2794      1.00000
[...]
       DOS:  cpu time    0.0067: real time    0.0067
    CHARGE:  cpu time    0.0293: real time    0.0293
    MIXING:  cpu time    0.0002: real time    0.0002
    --------------------------------------------
      LOOP:  cpu time    0.7090: real time    0.7102

 eigenvalue-minimisations  :  4648
 total energy-change (2. order) : 0.2468100E-01  (-0.4575961E-02)
 number of electron      32.0000008 magnetization       0.0000000
 augmentation part        0.8504479 magnetization      -0.0000005

 eigenvalues of (default mixing * dielectric matrix)
  average eigenvalue GAMMA=   2.1869
  2.1869

  free energy =  -0.716586847689E+02  energy without entropy=  -0.716586847689E+02


--------------------------------------------------------------------------------------------------------




--------------------------------------- Iteration      4(   3)  ---------------------------------------


    POTLOK:  cpu time    0.0101: real time    0.0111
    SETDIJ:  cpu time    0.0032: real time    0.0032
     EDDAV:  cpu time    0.6073: real time    0.6074
 BZINTS: Fermi energy: 11.836029; 32.000000 electrons
         Band energy:  60.590870;  BLOECHL correction:  0.000000
       DOS:  cpu time    0.0068: real time    0.0068
    CHARGE:  cpu time    0.0291: real time    0.0291
    MIXING:  cpu time    0.0002: real time    0.0002
    --------------------------------------------
      LOOP:  cpu time    0.6568: real time    0.6579

 eigenvalue-minimisations  :  4196
 total energy-change (2. order) : 0.1127001E-01  (-0.1625395E-02)
 number of electron      32.0000008 magnetization      -0.0000000
 augmentation part        0.8521289 magnetization       0.0000002

 eigenvalues of (default mixing * dielectric matrix)
  average eigenvalue GAMMA=   1.8133
  1.4531  2.1736

  free energy =  -0.716474147582E+02  energy without entropy=  -0.716474147582E+02


--------------------------------------------------------------------------------------------------------




--------------------------------------- Iteration      4(   4)  ---------------------------------------


    POTLOK:  cpu time    0.0104: real time    0.0110
    SETDIJ:  cpu time    0.0032: real time    0.0032
     EDDAV:  cpu time    0.6570: real time    0.6572
 BZINTS: Fermi energy: 11.836664; 32.000000 electrons
         Band energy:  60.598011;  BLOECHL correction:  0.000000
       DOS:  cpu time    0.0069: real time    0.0069
    CHARGE:  cpu time    0.0296: real time    0.0296
    MIXING:  cpu time    0.0002: real time    0.0002
    --------------------------------------------
      LOOP:  cpu time    0.7074: real time    0.7082

 eigenvalue-minimisations  :  4668
 total energy-change (2. order) : 0.4484427E-04  (-0.2090302E-04)
 number of electron      32.0000008 magnetization       0.0000000
 augmentation part        0.8520502 magnetization      -0.0000002

 eigenvalues of (default mixing * dielectric matrix)
  average eigenvalue GAMMA=   1.9510
  1.0616  2.1486  2.6428

  free energy =  -0.716473699140E+02  energy without entropy=  -0.716473699140E+02


--------------------------------------------------------------------------------------------------------




--------------------------------------- Iteration      4(   5)  ---------------------------------------


    POTLOK:  cpu time    0.0103: real time    0.0109
    SETDIJ:  cpu time    0.0031: real time    0.0031
     EDDAV:  cpu time    0.6447: real time    0.6450
 BZINTS: Fermi energy: 11.838140; 32.000000 electrons
         Band energy:  60.630305;  BLOECHL correction:  0.000000
       DOS:  cpu time    0.0069: real time    0.0069
    CHARGE:  cpu time    0.0308: real time    0.0308
    MIXING:  cpu time    0.0003: real time    0.0003
    --------------------------------------------
      LOOP:  cpu time    0.6961: real time    0.6970

 eigenvalue-minimisations  :  4476
 total energy-change (2. order) : 0.8691586E-05  (-0.9218638E-06)
 number of electron      32.0000008 magnetization      -0.0000000
 augmentation part        0.8519594 magnetization       0.0000004

 eigenvalues of (default mixing * dielectric matrix)
  average eigenvalue GAMMA=   1.6807
  2.6321  2.1099  1.0938  0.8871

  free energy =  -0.716473612224E+02  energy without entropy=  -0.716473612224E+02


--------------------------------------------------------------------------------------------------------




--------------------------------------- Iteration      4(   6)  ---------------------------------------


    POTLOK:  cpu time    0.0102: real time    0.0113
    SETDIJ:  cpu time    0.0033: real time    0.0033
     EDDAV:  cpu time    0.4401: real time    0.4401
 BZINTS: Fermi energy: 11.837888; 32.000000 electrons
         Band energy:  60.623802;  BLOECHL correction:  0.000000
       DOS:  cpu time    0.0070: real time    0.0070
    --------------------------------------------
      LOOP:  cpu time    0.4606: real time    0.4617

 eigenvalue-minimisations  :  2384
 total energy-change (2. order) : 0.2749768E-06  (-0.2335337E-07)
 number of electron      32.0000008 magnetization      -0.0000000
 augmentation part        0.8519594 magnetization       0.0000004

  free energy =  -0.716473609474E+02  energy without entropy=  -0.716473609474E+02


--------------------------------------------------------------------------------------------------------




------------------------ aborting loop because EDIFF is reached ----------------------------------------


 


 total charge     
 
# of ion       s       p       d       tot
------------------------------------------
    1        0.859   1.891   0.000   2.750
    2        0.859   1.891   0.000   2.750
    3        0.859   1.891   0.000   2.750
    4        0.859   1.891   0.000   2.750
    5        0.859   1.891   0.000   2.750
    6        0.859   1.891   0.000   2.750
    7        0.859   1.891   0.000   2.750
    8        0.859   1.891   0.000   2.750
--------------------------------------------------
tot          6.869  15.129   0.000  21.999
 


 magnetization (x)
 
# of ion       s       p       d       tot
------------------------------------------
    1        0.000  -0.000   0.000   0.000
    2        0.000  -0.000   0.000   0.000
    3        0.000  -0.000   0.000   0.000
    4        0.000  -0.000   0.000   0.000
    5        0.000  -0.000   0.000   0.000
    6        0.000  -0.000   0.000   0.000
    7        0.000  -0.000   0.000   0.000
    8        0.000  -0.000   0.000   0.000
--------------------------------------------------
tot          0.000  -0.000   0.000   0.000
 
    CHARGE:  cpu time    0.0305: real time    0.0305
    FORLOC:  cpu time    0.0002: real time    0.0002
    FORNL :  cpu time    0.0469: real time    0.0469
    STRESS:  cpu time    0.0586: real time    0.0586
    FORHAR:  cpu time    0.0008: real time    0.0008
    MIXING:  cpu time    0.0003: real time    0.0003
    OFIELD:  cpu time    0.0000: real time    0.0000

  FORCE on cell =-STRESS in cart. coord.  units (eV):
  Direction    XX          YY          ZZ          XY          YZ          ZX
  --------------------------------------------------------------------------------------
  Alpha Z   130.51127   130.51127   130.51127
  Ewald    -484.04414  -484.04414  -484.04414    -0.00136    -0.00136    -0.00136
  Hartree    32.87179    32.87179    32.87179    -0.00001    -0.00001    -0.00001
  E(xc)    -123.33563  -123.33563  -123.33563    -0.00000    -0.00000    -0.00000
  Local     -37.40278   -37.40278   -37.40278     0.00068     0.00068     0.00068
  n-local   -33.32733   -34.06832   -34.11576     0.56694     0.64891     0.30155
  augment    -3.40722    -3.40722    -3.40722     0.00003     0.00003     0.00003
  Kinetic   523.94782   540.82263   544.48462    -4.54359    -6.17749    -3.03681
  Fock        0.00000     0.00000     0.00000     0.00000     0.00000     0.00000
  -------------------------------------------------------------------------------------
  Total      17.77451    17.77451    17.77451    -0.00000     0.00000    -0.00000
  in kB     712.72892   712.72892   712.72892    -0.00000     0.00000    -0.00000
  external pressure =      -37.27 kB  Pullay stress =      750.00 kB



--------------------------------------------------------------------------------------------------------



  FREE ENERGIE OF THE ION-ELECTRON SYSTEM (eV)
  ---------------------------------------------------
  free  energy   TOTEN  =       -71.64736095 eV

  energy  without entropy=      -71.64736095  energy(sigma->0) =      -71.64736095
  enthalpy is  TOTEN    =       -52.94335952 eV   P V=       18.70400143

 d Force = 0.0000000E+00[ 0.000E+00, 0.000E+00]  d Energy = 0.2516909E+00-0.252E+00
 d Force = 0.0000000E+00[ 0.000E+00, 0.000E+00]  d Ewald  = 0.2336657E+02-0.234E+02


--------------------------------------------------------------------------------------------------------


    POTLOK:  cpu time    0.0106: real time    0.0106


--------------------------------------------------------------------------------------------------------




--------------------------------------------------------------------------------------------------------


    WAVPRE:  cpu time    0.0018: real time    0.0045
    FEWALD:  cpu time    0.0001: real time    0.0001
    GENKIN:  cpu time    0.0018: real time    0.0018
    ORTHCH:  cpu time    0.0217: real time    0.0217
     LOOP+:  cpu time    4.0720: real time    4.0857


--------------------------------------- Iteration      5(   1)  ---------------------------------------


    POTLOK:  cpu time    0.0100: real time    0.0124
    SETDIJ:  cpu time    0.0033: real time    0.0033
     EDDAV:  cpu time    0.6073: real time    0.6075
 BZINTS: Fermi energy: 11.807102; 32.000000 electrons
         Band energy:  62.608755;  BLOECHL correction:  0.000000
       DOS:  cpu time    0.0057: real time    0.0057
    CHARGE:  cpu time    0.0291: real time    0.0291
    MIXING:  cpu time    0.0002: real time    0.0002
    --------------------------------------------
      LOOP:  cpu time    0.6556: real time    0.6581

 eigenvalue-minimisations  :  4196
 total energy-change (2. order) : 0.9828921E-01  (-0.2831307E-02)
 number of electron      32.0000008 magnetization       0.0000000
 augmentation part        0.8558207 magnetization       0.0000004

  free energy =  -0.715490720171E+02  energy without entropy=  -0.715490720171E+02


--------------------------------------------------------------------------------------------------------




--------------------------------------- Iteration      5(   2)  ---------------------------------------


    POTLOK:  cpu time    0.0105: real time    0.0112
    SETDIJ:  cpu time    0.0031: real time    0.0031
     EDDAV:  cpu time    0.6658: real time    0.6659
 BZINTS: Fermi energy: 11.800325; 32.000000 electrons
         Band energy:  62.417651;  BLOECHL correction:  0.000000
       DOS:  cpu time    0.0061: real time    0.0061
    CHARGE:  cpu time    0.0307: real time    0.0307
    MIXING:  cpu time    0.0002: real time    0.0002
    --------------------------------------------
      LOOP:  cpu time    0.7164: real time    0.7172

 eigenvalue-minimisations  :  4692
 total energy-change (2. order) : 0.2995882E-03  (-0.5094868E-04)
 number of electron      32.0000008 magnetization      -0.0000000
 augmentation part        0.8561977 magnetization      -0.0000003

 eigenvalues of (default mixing * dielectric matrix)
  average eigenvalue GAMMA=   2.1984
  2.1984

  free energy =  -0.715487724289E+02  energy without entropy=  -0.715487724289E+02


--------------------------------------------------------------------------------------------------------




--------------------------------------- Iteration      5(   3)  ---------------------------------------


    POTLOK:  cpu time    0.0101: real time    0.0110
    SETDIJ:  cpu time    0.0031: real time    0.0031
     EDDAV:  cpu time    0.6108: real time    0.6109
 BZINTS: Fermi energy: 11.792797; 32.000000 electrons
         Band energy:  62.204753;  BLOECHL correction:  0.000000
       DOS:  cpu time    0.0060: real time    0.0060
    CHARGE:  cpu time    0.0295: real time    0.0295
    MIXING:  cpu time    0.0002: real time    0.0002
    --------------------------------------------
      LOOP:  cpu time    0.6598: real time    0.6607

 eigenvalue-minimisations  :  4256
 total energy-change (2. order) : 0.1328134E-03  (-0.1996374E-04)
 number of electron      32.0000008 magnetization       0.0000000
 augmentation part        0.8563812 magnetization       0.0000007

 eigenvalues of (default mixing * dielectric matrix)
  average eigenvalue GAMMA=   1.8052
  1.4499  2.1605

  free energy =  -0.715486396155E+02  energy without entropy=  -0.715486396155E+02


--------------------------------------------------------------------------------------------------------




--------------------------------------- Iteration      5(   4)  ---------------------------------------


    POTLOK:  cpu time    0.0101: real time    0.0111
    SETDIJ:  cpu time    0.0030: real time    0.0030
     EDDAV:  cpu time    0.6109: real time    0.6109
 BZINTS: Fermi energy: 11.792928; 32.000000 electrons
         Band energy:  62.207191;  BLOECHL correction:  0.000000
       DOS:  cpu time    0.0059: real time    0.0059
    --------------------------------------------
      LOOP:  cpu time    0.6300: real time    0.6310

 eigenvalue-minimisations  :  4148
 total energy-change (2. order) :-0.3271759E-06  (-0.2574437E-06)
 number of electron      32.0000008 magnetization       0.0000000
 augmentation part        0.8563812 magnetization       0.0000007

  free energy =  -0.715486399427E+02  energy without entropy=  -0.715486399427E+02


--------------------------------------------------------------------------------------------------------




------------------------ aborting loop because EDIFF is reached ----------------------------------------


 


 total charge     
 
# of ion       s       p       d       tot
------------------------------------------
    1        0.860   1.897   0.000   2.757
    2        0.860   1.897   0.000   2.757
    3        0.860   1.897   0.000   2.757
    4        0.860   1.897   0.000   2.757
    5        0.860   1.897   0.000   2.757
    6        0.860   1.897   0.000   2.757
    7        0.860   1.897   0.000   2.757
    8        0.860   1.897   0.000   2.757
--------------------------------------------------
tot          6.879  15.179   0.000  22.058
 


 magnetization (x)
 
# of ion       s       p       d       tot
------------------------------------------
    1        0.000  -0.000   0.000   0.000
    2        0.000  -0.000   0.000   0.000
    3        0.000  -0.000   0.000   0.000
    4        0.000  -0.000   0.000   0.000
    5        0.000  -0.000   0.000   0.000
    6        0.000  -0.000   0.000   0.000
    7        0.000  -0.000   0.000   0.000
    8        0.000  -0.000   0.000   0.000
--------------------------------------------------
tot          0.000  -0.000   0.000   0.000
 
    CHARGE:  cpu time    0.0304: real time    0.0304
    FORLOC:  cpu time    0.0002: real time    0.0002
    FORNL :  cpu time    0.0452: real time    0.0452
    STRESS:  cpu time    0.0582: real time    0.0582
    FORHAR:  cpu time    0.0008: real time    0.0008
    MIXING:  cpu time    0.0003: real time    0.0003
    OFIELD:  cpu time    0.0000: real time    0.0000

  FORCE on cell =-STRESS in cart. coord.  units (eV):
  Direction    XX          YY          ZZ          XY          YZ          ZX
  --------------------------------------------------------------------------------------
  Alpha Z   131.22095   131.22095   131.22095
  Ewald    -484.91991  -484.91991  -484.91991    -0.00136    -0.00136    -0.00136
  Hartree    32.77791    32.77791    32.77791    -0.00001    -0.00001    -0.00001
  E(xc)    -123.49528  -123.49528  -123.49528    -0.00000    -0.00000    -0.00000
  Local     -37.00639   -37.00639   -37.00639     0.00068     0.00068     0.00068
  n-local   -33.54995   -34.29042   -34.36531     0.56406     0.64365     0.29888
  augment    -3.43335    -3.43335    -3.43335     0.00004     0.00004     0.00004
  Kinetic   525.02603   541.95498   545.70966    -4.54893    -6.18021    -3.03911
  Fock        0.00000     0.00000     0.00000     0.00000     0.00000     0.00000
  -------------------------------------------------------------------------------------
  Total      18.63893    18.63893    18.63893    -0.00000    -0.00000     0.00000
  in kB     751.45478   751.45478   751.45478    -0.00000    -0.00000     0.00000
  external pressure =        1.45 kB  Pullay stress =      750.00 kB



--------------------------------------------------------------------------------------------------------



  FREE ENERGIE OF THE ION-ELECTRON SYSTEM (eV)
  ---------------------------------------------------
  free  energy   TOTEN  =       -71.54863994 eV

  energy  without entropy=      -71.54863994  energy(sigma->0) =      -71.54863994
  enthalpy is  TOTEN    =       -52.94579440 eV   P V=       18.60284554

 d Force = 0.0000000E+00[ 0.000E+00, 0.000E+00]  d Energy = 0.2434881E-02-0.243E-02
 d Force = 0.0000000E+00[ 0.000E+00, 0.000E+00]  d Ewald  = 0.2627305E+01-0.263E+01


--------------------------------------------------------------------------------------------------------


    POTLOK:  cpu time    0.0104: real time    0.0104


--------------------------------------------------------------------------------------------------------




--------------------------------------------------------------------------------------------------------


  
 reached required accuracy - stopping structural energy minimisation
     LOOP+:  cpu time    2.8184: real time    2.8298
    4ORBIT:  cpu time    0.0000: real time    0.0000
 


 total charge     
 
# of ion       s       p       d       tot
------------------------------------------
    1        0.860   1.897   0.000   2.757
    2        0.860   1.897   0.000   2.757
    3        0.860   1.897   0.000   2.757
    4        0.860   1.897   0.000   2.757
    5        0.860   1.897   0.000   2.757
    6        0.860   1.897   0.000   2.757
    7        0.860   1.897   0.000   2.757
    8        0.860   1.897   0.000   2.757
--------------------------------------------------
tot          6.879  15.179   0.000  22.058
 


 magnetization (x)
 
# of ion       s       p       d       tot
------------------------------------------
    1        0.000  -0.000   0.000   0.000
    2        0.000  -0.000   0.000   0.000
    3        0.000  -0.000   0.000   0.000
    4        0.000  -0.000   0.000   0.000
    5        0.000  -0.000   0.000   0.000
    6        0.000  -0.000   0.000   0.000
    7        0.000  -0.000   0.000   0.000
    8        0.000  -0.000   0.000   0.000
--------------------------------------------------
tot          0.000  -0.000   0.000   0.000
 
 BZINTS: Fermi energy: 11.792928; 32.000000 electrons
         Band energy:  62.207191;  BLOECHL correction:  0.000000

 total amount of memory used by VASP MPI-rank0    33440. kBytes
=======================================================================

   base      :      30000. kBytes
   nonl-proj :        502. kBytes
   fftplans  :        345. kBytes
   grid      :        794. kBytes
   one-center:         12. kBytes
   wavefun   :       1787. kBytes
 
  
  
 General timing and accounting informations for this job:
 ========================================================
  
                  Total CPU time used (sec):       24.790
                            User time (sec):       24.626
                          System time (sec):        0.164
                         Elapsed time (sec):       24.879
  
                   Maximum memory used (kb):       65356.
                   Average memory used (kb):           0.
  
                          Minor page faults:         7122
                          Major page faults:          351
                 Voluntary context switches:          621
