PROCAR lm decomposed
# of k-points:   35         # of bands:   28         # of ions:    8

 k-point     1 :    0.00000000 0.00000000 0.00000000     weight = 0.00195313

band     1 # energy  -11.56640023 # occ.  1.00000000
 
ion      s     py     pz     px    dxy    dyz    dz2    dxz  x2-y2    tot
    1  0.075  0.000  0.000  0.000  0.000  0.000  0.000  0.000  0.000  0.075
    2  0.075  0.000  0.000  0.000  0.000  0.000  0.000  0.000  0.000  0.075
    3  0.075  0.000  0.000  0.000  0.000  0.000  0.000  0.000  0.000  0.075
    4  0.075  0.000  0.000  0.000  0.000  0.000  0.000  0.000  0.000  0.075
    5  0.075  0.000  0.000  0.000  0.000  0.000  0.000  0.000  0.000  0.075
    6  0.075  0.000  0.000  0.000  0.000  0.000  0.000  0.000  0.000  0.075
    7  0.075  0.000  0.000  0.000  0.000  0.000  0.000  0.000  0.000  0.075
    8  0.075  0.000  0.000  0.000  0.000  0.000  0.000  0.000  0.000  0.075
tot    0.597  0.000  0.000  0.000  0.000  0.000  0.000  0.000  0.000  0.597
 
band     2 # energy   -1.98336269 # occ.  1.00000000
 
ion      s     py     pz     px    dxy    dyz    dz2    dxz  x2-y2    tot
    1  0.300  0.001  0.001  0.001  0.000  0.000  0.000  0.000  0.000  0.304
    2  0.002  0.020  0.021  0.020  0.000  0.000  0.000  0.000  0.000  0.063
    3  0.016  0.020  0.021  0.020  0.000  0.000  0.000  0.000  0.000  0.078
    4  0.002  0.020  0.021  0.020  0.000  0.000  0.000  0.000  0.000  0.063
    5  0.002  0.020  0.021  0.020  0.000  0.000  0.000  0.000  0.000  0.063
    6  0.034  0.001  0.001  0.001  0.000  0.000  0.000  0.000  0.000  0.037
    7  0.033  0.001  0.001  0.001  0.000  0.000  0.000  0.000  0.000  0.036
    8  0.034  0.001  0.001  0.001  0.000  0.000  0.000  0.000  0.000  0.037
tot    0.422  0.086  0.087  0.086  0.000  0.000  0.000  0.000  0.000  0.682
 
band     3 # energy   -1.98330115 # occ.  1.00000000
 
ion      s     py     pz     px    dxy    dyz    dz2    dxz  x2-y2    tot
    1  0.000  0.031  0.000  0.031  0.000  0.000  0.000  0.000  0.000  0.062
    2  0.201  0.002  0.000  0.002  0.000  0.000  0.000  0.000  0.000  0.204
    3  0.000  0.002  0.000  0.002  0.000  0.000  0.000  0.000  0.000  0.003
    4  0.000  0.002  0.000  0.002  0.000  0.000  0.000  0.000  0.000  0.003
    5  0.201  0.002  0.000  0.002  0.000  0.000  0.000  0.000  0.000  0.204
    6  0.010  0.031  0.000  0.031  0.000  0.000  0.000  0.000  0.000  0.072
    7  0.000  0.031  0.000  0.031  0.000  0.000  0.000  0.000  0.000  0.062
    8  0.010  0.031  0.000  0.031  0.000  0.000  0.000  0.000  0.000  0.072
tot    0.422  0.130  0.000  0.130  0.000  0.000  0.000  0.000  0.000  0.682
 
band     4 # energy   -1.98330058 # occ.  1.00000000
 
ion      s     py     pz     px    dxy    dyz    dz2    dxz  x2-y2    tot
    1  0.000  0.012  0.037  0.012  0.000  0.000  0.000  0.000  0.000  0.062
    2  0.060  0.000  0.002  0.000  0.000  0.000  0.000  0.000  0.000  0.063
    3  0.001  0.000  0.002  0.000  0.000  0.000  0.000  0.000  0.000  0.005
    4  0.280  0.000  0.002  0.000  0.000  0.000  0.000  0.000  0.000  0.283
    5  0.060  0.000  0.002  0.000  0.000  0.000  0.000  0.000  0.000  0.063
    6  0.004  0.012  0.037  0.012  0.000  0.000  0.000  0.000  0.000  0.066
    7  0.013  0.012  0.037  0.012  0.000  0.000  0.000  0.000  0.000  0.075
    8  0.004  0.012  0.037  0.012  0.000  0.000  0.000  0.000  0.000  0.066
tot    0.422  0.051  0.157  0.051  0.000  0.000  0.000  0.000  0.000  0.682
 
band     5 # energy   -1.98329383 # occ.  1.00000000
 
ion      s     py     pz     px    dxy    dyz    dz2    dxz  x2-y2    tot
    1  0.016  0.018  0.025  0.018  0.000  0.000  0.000  0.000  0.000  0.078
    2  0.040  0.001  0.001  0.001  0.000  0.000  0.000  0.000  0.000  0.044
    3  0.299  0.001  0.001  0.001  0.000  0.000  0.000  0.000  0.000  0.302
    4  0.021  0.001  0.001  0.001  0.000  0.000  0.000  0.000  0.000  0.025
    5  0.040  0.001  0.001  0.001  0.000  0.000  0.000  0.000  0.000  0.044
    6  0.001  0.018  0.025  0.018  0.000  0.000  0.000  0.000  0.000  0.063
    7  0.003  0.018  0.025  0.018  0.000  0.000  0.000  0.000  0.000  0.064
    8  0.001  0.018  0.025  0.018  0.000  0.000  0.000  0.000  0.000  0.063
tot    0.422  0.079  0.103  0.079  0.000  0.000  0.000  0.000  0.000  0.682
 
band     6 # energy   -1.98323015 # occ.  1.00000000
 
ion      s     py     pz     px    dxy    dyz    dz2    dxz  x2-y2    tot
    1  0.000  0.001  0.002  0.001  0.000  0.000  0.000  0.000  0.000  0.003
    2  0.003  0.010  0.041  0.010  0.000  0.000  0.000  0.000  0.000  0.065
    3  0.000  0.010  0.041  0.010  0.000  0.000  0.000  0.000  0.000  0.062
    4  0.014  0.010  0.041  0.010  0.000  0.000  0.000  0.000  0.000  0.076
    5  0.003  0.010  0.041  0.010  0.000  0.000  0.000  0.000  0.000  0.065
    6  0.067  0.001  0.002  0.001  0.000  0.000  0.000  0.000  0.000  0.070
    7  0.268  0.001  0.002  0.001  0.000  0.000  0.000  0.000  0.000  0.271
    8  0.067  0.001  0.002  0.001  0.000  0.000  0.000  0.000  0.000  0.070
tot    0.422  0.044  0.172  0.044  0.000  0.000  0.000  0.000  0.000  0.682
 
band     7 # energy   -1.98322955 # occ.  1.00000000
 
ion      s     py     pz     px    dxy    dyz    dz2    dxz  x2-y2    tot
    1  0.000  0.002  0.000  0.002  0.000  0.000  0.000  0.000  0.000  0.003
    2  0.010  0.031  0.000  0.031  0.000  0.000  0.000  0.000  0.000  0.072
    3  0.000  0.031  0.000  0.031  0.000  0.000  0.000  0.000  0.000  0.062
    4  0.000  0.031  0.000  0.031  0.000  0.000  0.000  0.000  0.000  0.062
    5  0.010  0.031  0.000  0.031  0.000  0.000  0.000  0.000  0.000  0.072
    6  0.201  0.002  0.000  0.002  0.000  0.000  0.000  0.000  0.000  0.204
    7  0.000  0.002  0.000  0.002  0.000  0.000  0.000  0.000  0.000  0.003
    8  0.201  0.002  0.000  0.002  0.000  0.000  0.000  0.000  0.000  0.204
tot    0.422  0.130  0.000  0.130  0.000  0.000  0.000  0.000  0.000  0.682
 
band     8 # energy    4.63370114 # occ.  1.00000000
 
ion      s     py     pz     px    dxy    dyz    dz2    dxz  x2-y2    tot
    1  0.000  0.087  0.000  0.087  0.000  0.000  0.000  0.000  0.000  0.173
    2  0.000  0.034  0.073  0.018  0.000  0.000  0.000  0.000  0.000  0.125
    3  0.000  0.034  0.000  0.034  0.000  0.000  0.000  0.000  0.000  0.068
    4  0.000  0.018  0.000  0.018  0.000  0.000  0.000  0.000  0.000  0.036
    5  0.000  0.018  0.073  0.034  0.000  0.000  0.000  0.000  0.000  0.125
    6  0.000  0.001  0.003  0.087  0.000  0.000  0.000  0.000  0.000  0.090
    7  0.000  0.001  0.000  0.001  0.000  0.000  0.000  0.000  0.000  0.001
    8  0.000  0.087  0.003  0.001  0.000  0.000  0.000  0.000  0.000  0.090
tot    0.000  0.279  0.152  0.279  0.000  0.000  0.000  0.000  0.000  0.709
 
band     9 # energy    4.63370171 # occ.  1.00000000
 
ion      s     py     pz     px    dxy    dyz    dz2    dxz  x2-y2    tot
    1  0.000  0.031  0.111  0.031  0.000  0.000  0.000  0.000  0.000  0.173
    2  0.000  0.010  0.000  0.054  0.000  0.000  0.000  0.000  0.000  0.064
    3  0.000  0.010  0.049  0.010  0.000  0.000  0.000  0.000  0.000  0.070
    4  0.000  0.054  0.049  0.054  0.000  0.000  0.000  0.000  0.000  0.157
    5  0.000  0.054  0.000  0.010  0.000  0.000  0.000  0.000  0.000  0.064
    6  0.000  0.002  0.000  0.031  0.000  0.000  0.000  0.000  0.000  0.033
    7  0.000  0.002  0.111  0.002  0.000  0.000  0.000  0.000  0.000  0.115
    8  0.000  0.031  0.000  0.002  0.000  0.000  0.000  0.000  0.000  0.033
tot    0.000  0.194  0.320  0.194  0.000  0.000  0.000  0.000  0.000  0.709
 
band    10 # energy    4.63372216 # occ.  1.00000000
 
ion      s     py     pz     px    dxy    dyz    dz2    dxz  x2-y2    tot
    1  0.000  0.057  0.064  0.057  0.000  0.000  0.000  0.000  0.000  0.177
    2  0.000  0.060  0.000  0.000  0.000  0.000  0.000  0.000  0.000  0.060
    3  0.000  0.060  0.057  0.060  0.000  0.000  0.000  0.000  0.000  0.177
    4  0.000  0.000  0.057  0.000  0.000  0.000  0.000  0.000  0.000  0.057
    5  0.000  0.000  0.000  0.060  0.000  0.000  0.000  0.000  0.000  0.060
    6  0.000  0.000  0.000  0.057  0.000  0.000  0.000  0.000  0.000  0.057
    7  0.000  0.000  0.064  0.000  0.000  0.000  0.000  0.000  0.000  0.064
    8  0.000  0.057  0.000  0.000  0.000  0.000  0.000  0.000  0.000  0.057
tot    0.000  0.234  0.241  0.234  0.000  0.000  0.000  0.000  0.000  0.709
 
band    11 # energy    4.63375544 # occ.  1.00000000
 
ion      s     py     pz     px    dxy    dyz    dz2    dxz  x2-y2    tot
    1  0.000  0.000  0.000  0.000  0.000  0.000  0.000  0.000  0.000  0.000
    2  0.000  0.000  0.061  0.058  0.000  0.000  0.000  0.000  0.000  0.119
    3  0.000  0.000  0.000  0.000  0.000  0.000  0.000  0.000  0.000  0.000
    4  0.000  0.058  0.000  0.058  0.000  0.000  0.000  0.000  0.000  0.116
    5  0.000  0.058  0.061  0.000  0.000  0.000  0.000  0.000  0.000  0.119
    6  0.000  0.061  0.055  0.000  0.000  0.000  0.000  0.000  0.000  0.116
    7  0.000  0.061  0.000  0.061  0.000  0.000  0.000  0.000  0.000  0.123
    8  0.000  0.000  0.055  0.061  0.000  0.000  0.000  0.000  0.000  0.116
tot    0.000  0.238  0.232  0.238  0.000  0.000  0.000  0.000  0.000  0.709
 
band    12 # energy    4.63377587 # occ.  1.00000000
 
ion      s     py     pz     px    dxy    dyz    dz2    dxz  x2-y2    tot
    1  0.000  0.001  0.003  0.001  0.000  0.000  0.000  0.000  0.000  0.004
    2  0.000  0.018  0.000  0.035  0.000  0.000  0.000  0.000  0.000  0.053
    3  0.000  0.018  0.071  0.018  0.000  0.000  0.000  0.000  0.000  0.108
    4  0.000  0.035  0.071  0.035  0.000  0.000  0.000  0.000  0.000  0.141
    5  0.000  0.035  0.000  0.018  0.000  0.000  0.000  0.000  0.000  0.053
    6  0.000  0.087  0.000  0.001  0.000  0.000  0.000  0.000  0.000  0.087
    7  0.000  0.087  0.003  0.087  0.000  0.000  0.000  0.000  0.000  0.176
    8  0.000  0.001  0.000  0.087  0.000  0.000  0.000  0.000  0.000  0.087
tot    0.000  0.280  0.148  0.280  0.000  0.000  0.000  0.000  0.000  0.709
 
band    13 # energy    4.63377647 # occ.  1.00000000
 
ion      s     py     pz     px    dxy    dyz    dz2    dxz  x2-y2    tot
    1  0.000  0.002  0.000  0.002  0.000  0.000  0.000  0.000  0.000  0.004
    2  0.000  0.054  0.043  0.013  0.000  0.000  0.000  0.000  0.000  0.110
    3  0.000  0.054  0.000  0.054  0.000  0.000  0.000  0.000  0.000  0.109
    4  0.000  0.013  0.000  0.013  0.000  0.000  0.000  0.000  0.000  0.026
    5  0.000  0.013  0.043  0.054  0.000  0.000  0.000  0.000  0.000  0.110
    6  0.000  0.027  0.120  0.002  0.000  0.000  0.000  0.000  0.000  0.149
    7  0.000  0.027  0.000  0.027  0.000  0.000  0.000  0.000  0.000  0.053
    8  0.000  0.002  0.120  0.027  0.000  0.000  0.000  0.000  0.000  0.149
tot    0.000  0.192  0.325  0.192  0.000  0.000  0.000  0.000  0.000  0.709
 
band    14 # energy   11.78619739 # occ.  1.00000000
 
ion      s     py     pz     px    dxy    dyz    dz2    dxz  x2-y2    tot
    1  0.000  0.016  0.067  0.017  0.000  0.000  0.000  0.000  0.000  0.100
    2  0.000  0.016  0.067  0.017  0.000  0.000  0.000  0.000  0.000  0.100
    3  0.000  0.016  0.067  0.017  0.000  0.000  0.000  0.000  0.000  0.100
    4  0.000  0.016  0.067  0.017  0.000  0.000  0.000  0.000  0.000  0.100
    5  0.000  0.016  0.067  0.017  0.000  0.000  0.000  0.000  0.000  0.100
    6  0.000  0.016  0.067  0.017  0.000  0.000  0.000  0.000  0.000  0.100
    7  0.000  0.016  0.067  0.017  0.000  0.000  0.000  0.000  0.000  0.100
    8  0.000  0.016  0.067  0.017  0.000  0.000  0.000  0.000  0.000  0.100
tot    0.000  0.131  0.533  0.136  0.000  0.000  0.000  0.000  0.000  0.800
 
band    15 # energy   11.78619739 # occ.  1.00000000
 
ion      s     py     pz     px    dxy    dyz    dz2    dxz  x2-y2    tot
    1  0.000  0.050  0.000  0.050  0.000  0.000  0.000  0.000  0.000  0.100
    2  0.000  0.050  0.000  0.050  0.000  0.000  0.000  0.000  0.000  0.100
    3  0.000  0.050  0.000  0.050  0.000  0.000  0.000  0.000  0.000  0.100
    4  0.000  0.050  0.000  0.050  0.000  0.000  0.000  0.000  0.000  0.100
    5  0.000  0.050  0.000  0.050  0.000  0.000  0.000  0.000  0.000  0.100
    6  0.000  0.050  0.000  0.050  0.000  0.000  0.000  0.000  0.000  0.100
    7  0.000  0.050  0.000  0.050  0.000  0.000  0.000  0.000  0.000  0.100
    8  0.000  0.050  0.000  0.050  0.000  0.000  0.000  0.000  0.000  0.100
tot    0.000  0.402  0.000  0.397  0.000  0.000  0.000  0.000  0.000  0.800
 
band    16 # energy   11.78631096 # occ.  1.00000000
 
ion      s     py     pz     px    dxy    dyz    dz2    dxz  x2-y2    tot
    1  0.000  0.033  0.033  0.033  0.000  0.000  0.000  0.000  0.000  0.100
    2  0.000  0.033  0.033  0.033  0.000  0.000  0.000  0.000  0.000  0.100
    3  0.000  0.033  0.033  0.033  0.000  0.000  0.000  0.000  0.000  0.100
    4  0.000  0.033  0.033  0.033  0.000  0.000  0.000  0.000  0.000  0.100
    5  0.000  0.033  0.033  0.033  0.000  0.000  0.000  0.000  0.000  0.100
    6  0.000  0.033  0.033  0.033  0.000  0.000  0.000  0.000  0.000  0.100
    7  0.000  0.033  0.033  0.033  0.000  0.000  0.000  0.000  0.000  0.100
    8  0.000  0.033  0.033  0.033  0.000  0.000  0.000  0.000  0.000  0.100
tot    0.000  0.267  0.267  0.267  0.000  0.000  0.000  0.000  0.000  0.800
 
band    17 # energy   16.80939236 # occ.  0.00000000
 
ion      s     py     pz     px    dxy    dyz    dz2    dxz  x2-y2    tot
    1  0.000  0.004  0.000  0.004  0.000  0.000  0.000  0.000  0.000  0.007
    2  0.048  0.006  0.000  0.006  0.000  0.000  0.000  0.000  0.000  0.060
    3  0.000  0.006  0.000  0.006  0.000  0.000  0.000  0.000  0.000  0.012
    4  0.000  0.006  0.000  0.006  0.000  0.000  0.000  0.000  0.000  0.012
    5  0.048  0.006  0.000  0.006  0.000  0.000  0.000  0.000  0.000  0.060
    6  0.078  0.004  0.000  0.004  0.000  0.000  0.000  0.000  0.000  0.086
    7  0.000  0.004  0.000  0.004  0.000  0.000  0.000  0.000  0.000  0.007
    8  0.078  0.004  0.000  0.004  0.000  0.000  0.000  0.000  0.000  0.086
tot    0.252  0.039  0.000  0.039  0.000  0.000  0.000  0.000  0.000  0.330
 
band    18 # energy   16.80939251 # occ.  0.00000000
 
ion      s     py     pz     px    dxy    dyz    dz2    dxz  x2-y2    tot
    1  0.000  0.001  0.005  0.001  0.000  0.000  0.000  0.000  0.000  0.008
    2  0.018  0.002  0.008  0.002  0.000  0.000  0.000  0.000  0.000  0.029
    3  0.000  0.002  0.008  0.002  0.000  0.000  0.000  0.000  0.000  0.012
    4  0.066  0.002  0.008  0.002  0.000  0.000  0.000  0.000  0.000  0.078
    5  0.018  0.002  0.008  0.002  0.000  0.000  0.000  0.000  0.000  0.029
    6  0.025  0.001  0.005  0.001  0.000  0.000  0.000  0.000  0.000  0.033
    7  0.100  0.001  0.005  0.001  0.000  0.000  0.000  0.000  0.000  0.108
    8  0.025  0.001  0.005  0.001  0.000  0.000  0.000  0.000  0.000  0.033
tot    0.252  0.013  0.052  0.013  0.000  0.000  0.000  0.000  0.000  0.330
 
band    19 # energy   16.80940750 # occ.  0.00000000
 
ion      s     py     pz     px    dxy    dyz    dz2    dxz  x2-y2    tot
    1  0.003  0.006  0.007  0.006  0.000  0.000  0.000  0.000  0.000  0.022
    2  0.022  0.000  0.000  0.000  0.000  0.000  0.000  0.000  0.000  0.022
    3  0.186  0.000  0.000  0.000  0.000  0.000  0.000  0.000  0.000  0.186
    4  0.019  0.000  0.000  0.000  0.000  0.000  0.000  0.000  0.000  0.019
    5  0.022  0.000  0.000  0.000  0.000  0.000  0.000  0.000  0.000  0.022
    6  0.000  0.006  0.007  0.006  0.000  0.000  0.000  0.000  0.000  0.019
    7  0.001  0.006  0.007  0.006  0.000  0.000  0.000  0.000  0.000  0.020
    8  0.000  0.006  0.007  0.006  0.000  0.000  0.000  0.000  0.000  0.019
tot    0.252  0.025  0.027  0.025  0.000  0.000  0.000  0.000  0.000  0.330
 
band    20 # energy   16.80941977 # occ.  0.00000000
 
ion      s     py     pz     px    dxy    dyz    dz2    dxz  x2-y2    tot
    1  0.000  0.002  0.007  0.002  0.000  0.000  0.000  0.000  0.000  0.012
    2  0.024  0.001  0.005  0.001  0.000  0.000  0.000  0.000  0.000  0.031
    3  0.000  0.001  0.005  0.001  0.000  0.000  0.000  0.000  0.000  0.008
    4  0.104  0.001  0.005  0.001  0.000  0.000  0.000  0.000  0.000  0.111
    5  0.024  0.001  0.005  0.001  0.000  0.000  0.000  0.000  0.000  0.031
    6  0.017  0.002  0.007  0.002  0.000  0.000  0.000  0.000  0.000  0.029
    7  0.067  0.002  0.007  0.002  0.000  0.000  0.000  0.000  0.000  0.079
    8  0.017  0.002  0.007  0.002  0.000  0.000  0.000  0.000  0.000  0.029
tot    0.252  0.014  0.050  0.014  0.000  0.000  0.000  0.000  0.000  0.330
 
band    21 # energy   16.80941991 # occ.  0.00000000
 
ion      s     py     pz     px    dxy    dyz    dz2    dxz  x2-y2    tot
    1  0.000  0.006  0.000  0.006  0.000  0.000  0.000  0.000  0.000  0.012
    2  0.078  0.004  0.000  0.004  0.000  0.000  0.000  0.000  0.000  0.086
    3  0.000  0.004  0.000  0.004  0.000  0.000  0.000  0.000  0.000  0.007
    4  0.000  0.004  0.000  0.004  0.000  0.000  0.000  0.000  0.000  0.007
    5  0.078  0.004  0.000  0.004  0.000  0.000  0.000  0.000  0.000  0.086
    6  0.048  0.006  0.000  0.006  0.000  0.000  0.000  0.000  0.000  0.060
    7  0.000  0.006  0.000  0.006  0.000  0.000  0.000  0.000  0.000  0.012
    8  0.048  0.006  0.000  0.006  0.000  0.000  0.000  0.000  0.000  0.060
tot    0.252  0.039  0.000  0.039  0.000  0.000  0.000  0.000  0.000  0.330
 
band    22 # energy   16.80951707 # occ.  0.00000000
 
ion      s     py     pz     px    dxy    dyz    dz2    dxz  x2-y2    tot
    1  0.186  0.000  0.000  0.000  0.000  0.000  0.000  0.000  0.000  0.186
    2  0.000  0.006  0.006  0.006  0.000  0.000  0.000  0.000  0.000  0.019
    3  0.003  0.006  0.006  0.006  0.000  0.000  0.000  0.000  0.000  0.022
    4  0.000  0.006  0.006  0.006  0.000  0.000  0.000  0.000  0.000  0.019
    5  0.000  0.006  0.006  0.006  0.000  0.000  0.000  0.000  0.000  0.019
    6  0.021  0.000  0.000  0.000  0.000  0.000  0.000  0.000  0.000  0.021
    7  0.020  0.000  0.000  0.000  0.000  0.000  0.000  0.000  0.000  0.020
    8  0.021  0.000  0.000  0.000  0.000  0.000  0.000  0.000  0.000  0.021
tot    0.252  0.026  0.026  0.026  0.000  0.000  0.000  0.000  0.000  0.329
 
band    23 # energy   17.74310493 # occ.  0.00000000
 
ion      s     py     pz     px    dxy    dyz    dz2    dxz  x2-y2    tot
    1  0.000  0.025  0.025  0.025  0.000  0.000  0.000  0.000  0.000  0.076
    2  0.000  0.025  0.025  0.025  0.000  0.000  0.000  0.000  0.000  0.076
    3  0.000  0.025  0.025  0.025  0.000  0.000  0.000  0.000  0.000  0.076
    4  0.000  0.025  0.025  0.025  0.000  0.000  0.000  0.000  0.000  0.076
    5  0.000  0.025  0.025  0.025  0.000  0.000  0.000  0.000  0.000  0.076
    6  0.000  0.025  0.025  0.025  0.000  0.000  0.000  0.000  0.000  0.076
    7  0.000  0.025  0.025  0.025  0.000  0.000  0.000  0.000  0.000  0.076
    8  0.000  0.025  0.025  0.025  0.000  0.000  0.000  0.000  0.000  0.076
tot    0.000  0.202  0.202  0.202  0.000  0.000  0.000  0.000  0.000  0.606
 
band    24 # energy   17.74319087 # occ.  0.00000000
 
ion      s     py     pz     px    dxy    dyz    dz2    dxz  x2-y2    tot
    1  0.000  0.032  0.001  0.042  0.000  0.000  0.000  0.000  0.000  0.076
    2  0.000  0.032  0.001  0.042  0.000  0.000  0.000  0.000  0.000  0.076
    3  0.000  0.032  0.001  0.042  0.000  0.000  0.000  0.000  0.000  0.076
    4  0.000  0.032  0.001  0.042  0.000  0.000  0.000  0.000  0.000  0.076
    5  0.000  0.032  0.001  0.042  0.000  0.000  0.000  0.000  0.000  0.076
    6  0.000  0.032  0.001  0.042  0.000  0.000  0.000  0.000  0.000  0.076
    7  0.000  0.032  0.001  0.042  0.000  0.000  0.000  0.000  0.000  0.076
    8  0.000  0.032  0.001  0.042  0.000  0.000  0.000  0.000  0.000  0.076
tot    0.000  0.259  0.011  0.337  0.000  0.000  0.000  0.000  0.000  0.606
 
band    25 # energy   17.74319087 # occ.  0.00000000
 
ion      s     py     pz     px    dxy    dyz    dz2    dxz  x2-y2    tot
    1  0.000  0.018  0.049  0.008  0.000  0.000  0.000  0.000  0.000  0.076
    2  0.000  0.018  0.049  0.008  0.000  0.000  0.000  0.000  0.000  0.076
    3  0.000  0.018  0.049  0.008  0.000  0.000  0.000  0.000  0.000  0.076
    4  0.000  0.018  0.049  0.008  0.000  0.000  0.000  0.000  0.000  0.076
    5  0.000  0.018  0.049  0.008  0.000  0.000  0.000  0.000  0.000  0.076
    6  0.000  0.018  0.049  0.008  0.000  0.000  0.000  0.000  0.000  0.076
    7  0.000  0.018  0.049  0.008  0.000  0.000  0.000  0.000  0.000  0.076
    8  0.000  0.018  0.049  0.008  0.000  0.000  0.000  0.000  0.000  0.076
tot    0.000  0.145  0.394  0.067  0.000  0.000  0.000  0.000  0.000  0.606
 
band    26 # energy   28.27290524 # occ.  0.00000000
 
ion      s     py     pz     px    dxy    dyz    dz2    dxz  x2-y2    tot
    1  0.095  0.000  0.000  0.000  0.000  0.000  0.000  0.000  0.000  0.095
    2  0.095  0.000  0.000  0.000  0.000  0.000  0.000  0.000  0.000  0.095
    3  0.095  0.000  0.000  0.000  0.000  0.000  0.000  0.000  0.000  0.095
    4  0.095  0.000  0.000  0.000  0.000  0.000  0.000  0.000  0.000  0.095
    5  0.095  0.000  0.000  0.000  0.000  0.000  0.000  0.000  0.000  0.095
    6  0.095  0.000  0.000  0.000  0.000  0.000  0.000  0.000  0.000  0.095
    7  0.095  0.000  0.000  0.000  0.000  0.000  0.000  0.000  0.000  0.095
    8  0.095  0.000  0.000  0.000  0.000  0.000  0.000  0.000  0.000  0.095
tot    0.760  0.000  0.000  0.000  0.000  0.000  0.000  0.000  0.000  0.760
 
band    27 # energy   30.76719253 # occ.  0.00000000
 
ion      s     py     pz     px    dxy    dyz    dz2    dxz  x2-y2    tot
    1  0.000  0.000  0.001  0.047  0.000  0.000  0.000  0.000  0.000  0.049
    2  0.000  0.005  0.120  0.023  0.000  0.000  0.000  0.000  0.000  0.148
    3  0.000  0.005  0.052  0.002  0.000  0.000  0.000  0.000  0.000  0.059
    4  0.000  0.010  0.052  0.023  0.000  0.000  0.000  0.000  0.000  0.085
    5  0.000  0.010  0.120  0.002  0.000  0.000  0.000  0.000  0.000  0.132
    6  0.000  0.024  0.013  0.047  0.000  0.000  0.000  0.000  0.000  0.084
    7  0.000  0.024  0.001  0.126  0.000  0.000  0.000  0.000  0.000  0.151
    8  0.000  0.000  0.013  0.126  0.000  0.000  0.000  0.000  0.000  0.140
tot    0.000  0.080  0.372  0.395  0.000  0.000  0.000  0.000  0.000  0.847
 
band    28 # energy   30.76720026 # occ.  0.00000000
 
ion      s     py     pz     px    dxy    dyz    dz2    dxz  x2-y2    tot
    1  0.000  0.011  0.072  0.067  0.000  0.000  0.000  0.000  0.000  0.150
    2  0.000  0.101  0.006  0.004  0.000  0.000  0.000  0.000  0.000  0.111
    3  0.000  0.101  0.017  0.029  0.000  0.000  0.000  0.000  0.000  0.147
    4  0.000  0.055  0.017  0.004  0.000  0.000  0.000  0.000  0.000  0.076
    5  0.000  0.055  0.006  0.029  0.000  0.000  0.000  0.000  0.000  0.089
    6  0.000  0.015  0.031  0.067  0.000  0.000  0.000  0.000  0.000  0.113
    7  0.000  0.015  0.072  0.015  0.000  0.000  0.000  0.000  0.000  0.103
    8  0.000  0.011  0.031  0.015  0.000  0.000  0.000  0.000  0.000  0.057
tot    0.000  0.365  0.253  0.229  0.000  0.000  0.000  0.000  0.000  0.847
 

 k-point     2 :    0.12500000 0.00000000 0.00000000     weight = 0.01171875

band     1 # energy  -11.40874504 # occ.  1.00000000
 
ion      s     py     pz     px    dxy    dyz    dz2    dxz  x2-y2    tot
    1  0.074  0.000  0.000  0.001  0.000  0.000  0.000  0.000  0.000  0.075
    2  0.074  0.000  0.000  0.001  0.000  0.000  0.000  0.000  0.000  0.075
    3  0.074  0.000  0.000  0.001  0.000  0.000  0.000  0.000  0.000  0.075
    4  0.074  0.000  0.000  0.001  0.000  0.000  0.000  0.000  0.000  0.075
    5  0.074  0.000  0.000  0.001  0.000  0.000  0.000  0.000  0.000  0.075
    6  0.074  0.000  0.000  0.001  0.000  0.000  0.000  0.000  0.000  0.075
    7  0.074  0.000  0.000  0.001  0.000  0.000  0.000  0.000  0.000  0.075
    8  0.074  0.000  0.000  0.001  0.000  0.000  0.000  0.000  0.000  0.075
tot    0.594  0.000  0.000  0.005  0.000  0.000  0.000  0.000  0.000  0.599
 
band     2 # energy   -4.10964923 # occ.  1.00000000
 
ion      s     py     pz     px    dxy    dyz    dz2    dxz  x2-y2    tot
    1  0.057  0.000  0.000  0.025  0.000  0.000  0.000  0.000  0.000  0.082
    2  0.057  0.000  0.000  0.025  0.000  0.000  0.000  0.000  0.000  0.082
    3  0.057  0.000  0.000  0.025  0.000  0.000  0.000  0.000  0.000  0.082
    4  0.057  0.000  0.000  0.025  0.000  0.000  0.000  0.000  0.000  0.082
    5  0.057  0.000  0.000  0.025  0.000  0.000  0.000  0.000  0.000  0.082
    6  0.057  0.000  0.000  0.025  0.000  0.000  0.000  0.000  0.000  0.082
    7  0.057  0.000  0.000  0.025  0.000  0.000  0.000  0.000  0.000  0.082
    8  0.057  0.000  0.000  0.025  0.000  0.000  0.000  0.000  0.000  0.082
tot    0.455  0.000  0.000  0.204  0.000  0.000  0.000  0.000  0.000  0.659
 
band     3 # energy   -1.87228058 # occ.  1.00000000
 
ion      s     py     pz     px    dxy    dyz    dz2    dxz  x2-y2    tot
    1  0.165  0.007  0.007  0.001  0.000  0.000  0.000  0.000  0.000  0.180
    2  0.000  0.025  0.025  0.000  0.000  0.000  0.000  0.000  0.000  0.050
    3  0.048  0.025  0.025  0.000  0.000  0.000  0.000  0.000  0.000  0.098
    4  0.000  0.025  0.025  0.000  0.000  0.000  0.000  0.000  0.000  0.050
    5  0.048  0.025  0.025  0.000  0.000  0.000  0.000  0.000  0.000  0.098
    6  0.165  0.007  0.007  0.001  0.000  0.000  0.000  0.000  0.000  0.180
    7  0.000  0.007  0.007  0.000  0.000  0.000  0.000  0.000  0.000  0.014
    8  0.000  0.007  0.007  0.000  0.000  0.000  0.000  0.000  0.000  0.014
tot    0.425  0.129  0.129  0.001  0.000  0.000  0.000  0.000  0.000  0.685
 
band     4 # energy   -1.87225499 # occ.  1.00000000
 
ion      s     py     pz     px    dxy    dyz    dz2    dxz  x2-y2    tot
    1  0.000  0.033  0.029  0.000  0.000  0.000  0.000  0.000  0.000  0.062
    2  0.202  0.001  0.002  0.001  0.000  0.000  0.000  0.000  0.000  0.206
    3  0.000  0.001  0.002  0.000  0.000  0.000  0.000  0.000  0.000  0.003
    4  0.202  0.001  0.002  0.001  0.000  0.000  0.000  0.000  0.000  0.206
    5  0.000  0.001  0.002  0.000  0.000  0.000  0.000  0.000  0.000  0.003
    6  0.000  0.033  0.029  0.000  0.000  0.000  0.000  0.000  0.000  0.062
    7  0.010  0.033  0.029  0.000  0.000  0.000  0.000  0.000  0.000  0.072
    8  0.010  0.033  0.029  0.000  0.000  0.000  0.000  0.000  0.000  0.072
tot    0.425  0.136  0.123  0.001  0.000  0.000  0.000  0.000  0.000  0.685
 
band     5 # energy   -1.87224299 # occ.  1.00000000
 
ion      s     py     pz     px    dxy    dyz    dz2    dxz  x2-y2    tot
    1  0.047  0.023  0.027  0.000  0.000  0.000  0.000  0.000  0.000  0.098
    2  0.000  0.007  0.007  0.000  0.000  0.000  0.000  0.000  0.000  0.015
    3  0.165  0.007  0.007  0.001  0.000  0.000  0.000  0.000  0.000  0.180
    4  0.000  0.007  0.007  0.000  0.000  0.000  0.000  0.000  0.000  0.015
    5  0.165  0.007  0.007  0.001  0.000  0.000  0.000  0.000  0.000  0.180
    6  0.047  0.023  0.027  0.000  0.000  0.000  0.000  0.000  0.000  0.098
    7  0.000  0.023  0.027  0.000  0.000  0.000  0.000  0.000  0.000  0.050
    8  0.000  0.023  0.027  0.000  0.000  0.000  0.000  0.000  0.000  0.050
tot    0.425  0.121  0.137  0.001  0.000  0.000  0.000  0.000  0.000  0.685
 
band     6 # energy   -1.87218237 # occ.  1.00000000
 
ion      s     py     pz     px    dxy    dyz    dz2    dxz  x2-y2    tot
    1  0.000  0.002  0.002  0.000  0.000  0.000  0.000  0.000  0.000  0.003
    2  0.010  0.031  0.030  0.000  0.000  0.000  0.000  0.000  0.000  0.072
    3  0.000  0.031  0.030  0.000  0.000  0.000  0.000  0.000  0.000  0.062
    4  0.010  0.031  0.030  0.000  0.000  0.000  0.000  0.000  0.000  0.072
    5  0.000  0.031  0.030  0.000  0.000  0.000  0.000  0.000  0.000  0.062
    6  0.000  0.002  0.002  0.000  0.000  0.000  0.000  0.000  0.000  0.003
    7  0.202  0.002  0.002  0.001  0.000  0.000  0.000  0.000  0.000  0.206
    8  0.202  0.002  0.002  0.001  0.000  0.000  0.000  0.000  0.000  0.206
tot    0.425  0.131  0.128  0.001  0.000  0.000  0.000  0.000  0.000  0.685
 
band     7 # energy    0.29567872 # occ.  1.00000000
 
ion      s     py     pz     px    dxy    dyz    dz2    dxz  x2-y2    tot
    1  0.048  0.000  0.000  0.040  0.000  0.000  0.000  0.000  0.000  0.088
    2  0.048  0.000  0.000  0.040  0.000  0.000  0.000  0.000  0.000  0.088
    3  0.048  0.000  0.000  0.040  0.000  0.000  0.000  0.000  0.000  0.088
    4  0.048  0.000  0.000  0.040  0.000  0.000  0.000  0.000  0.000  0.088
    5  0.048  0.000  0.000  0.040  0.000  0.000  0.000  0.000  0.000  0.088
    6  0.048  0.000  0.000  0.040  0.000  0.000  0.000  0.000  0.000  0.088
    7  0.048  0.000  0.000  0.040  0.000  0.000  0.000  0.000  0.000  0.088
    8  0.048  0.000  0.000  0.040  0.000  0.000  0.000  0.000  0.000  0.088
tot    0.385  0.000  0.000  0.322  0.000  0.000  0.000  0.000  0.000  0.707
 
band     8 # energy    4.28337182 # occ.  1.00000000
 
ion      s     py     pz     px    dxy    dyz    dz2    dxz  x2-y2    tot
    1  0.005  0.006  0.006  0.143  0.000  0.000  0.000  0.000  0.000  0.160
    2  0.000  0.037  0.038  0.000  0.000  0.000  0.000  0.000  0.000  0.075
    3  0.001  0.037  0.038  0.024  0.000  0.000  0.000  0.000  0.000  0.099
    4  0.000  0.037  0.038  0.000  0.000  0.000  0.000  0.000  0.000  0.075
    5  0.001  0.037  0.038  0.024  0.000  0.000  0.000  0.000  0.000  0.099
    6  0.005  0.006  0.006  0.143  0.000  0.000  0.000  0.000  0.000  0.160
    7  0.000  0.006  0.006  0.000  0.000  0.000  0.000  0.000  0.000  0.012
    8  0.000  0.006  0.006  0.000  0.000  0.000  0.000  0.000  0.000  0.012
tot    0.011  0.172  0.175  0.332  0.000  0.000  0.000  0.000  0.000  0.691
 
band     9 # energy    4.28339813 # occ.  1.00000000
 
ion      s     py     pz     px    dxy    dyz    dz2    dxz  x2-y2    tot
    1  0.000  0.039  0.034  0.000  0.000  0.000  0.000  0.000  0.000  0.074
    2  0.005  0.006  0.007  0.141  0.000  0.000  0.000  0.000  0.000  0.158
    3  0.000  0.006  0.007  0.000  0.000  0.000  0.000  0.000  0.000  0.013