<?xml version="1.0" encoding="ISO-8859-1"?>
<modeling>
 <generator>
  <i name="program" type="string">vasp </i>
  <i name="version" type="string">5.4.4.18Apr17-6-g9f103f2a35  </i>
  <i name="subversion" type="string">(build Jul  5 2023 12:24:19) complex            parallel </i>
  <i name="platform" type="string">NVIDIA22.7_CrayMPICH8.1.17 </i>
  <i name="date" type="string">2023 10 16 </i>
  <i name="time" type="string">23:30:57 </i>
 </generator>
 <incar>
  <i type="string" name="PREC">accurate</i>
  <i type="int" name="ISPIN">     2</i>
  <i type="int" name="ICHARG">     0</i>
  <i type="int" name="IBRION">     2</i>
  <i name="EDIFF">      0.00000100</i>
  <i name="EDIFFG">      0.00010000</i>
  <i type="int" name="NSW">   100</i>
  <i type="int" name="ISIF">     3</i>
  <i type="int" name="ISYM">     2</i>
  <i name="SYMPREC">      0.00010000</i>
  <i name="POTIM">      0.01500000</i>
  <i type="int" name="ISMEAR">    -5</i>
  <i name="SIGMA">      0.01000000</i>
  <i type="int" name="NWRITE">     0</i>
  <i name="PSTRESS">    750.00000000</i>
  <i type="logical" name="LWAVE"> F  </i>
  <i type="logical" name="LCHARG"> F  </i>
  <i type="int" name="LORBIT">    11</i>
  <v type="int" name="KPOINT_BSE">    -1     0     0     0</v>
 </incar>
 <structure name="primitive_cell" >
  <crystal>
   <varray name="basis" >
    <v>       1.75593999       1.75593999      -0.00000702 </v>
    <v>       1.75593999      -0.00000000      -1.75594701 </v>
    <v>       0.00000000       1.75593999      -1.75594701 </v>
   </varray>
   <i name="volume">     10.82828983 </i>
   <varray name="rec_basis" >
    <v>       0.28474834       0.28474834       0.28474720 </v>
    <v>       0.28474720      -0.28474834      -0.28474720 </v>
    <v>      -0.28474834       0.28474720      -0.28474720 </v>
   </varray>
  </crystal>
  <varray name="positions" >
   <v>       0.27008605       0.24330497       0.24330497 </v>
   <v>      -0.47991595       0.49330597       0.49330597 </v>
  </varray>
 </structure>
 <varray name="primitive_index" >
  <v type="int" >        1 </v>
  <v type="int" >        2 </v>
 </varray>
 <kpoints>
  <generation param="Gamma">
   <v type="int" name="divisions">       8        8        8 </v>
   <v name="usershift">      0.00000000       0.00000000       0.00000000 </v>
   <v name="genvec1">      0.12500000       0.00000000       0.00000000 </v>
   <v name="genvec2">      0.00000000       0.12500000       0.00000000 </v>
   <v name="genvec3">      0.00000000       0.00000000       0.12500000 </v>
   <v name="shift">      0.00000000       0.00000000       0.00000000 </v>
  </generation>
  <varray name="kpointlist" >
   <v>       0.00000000       0.00000000       0.00000000 </v>
   <v>       0.12500000       0.00000000       0.00000000 </v>
   <v>       0.25000000       0.00000000       0.00000000 </v>
   <v>       0.37500000       0.00000000       0.00000000 </v>
   <v>       0.50000000       0.00000000       0.00000000 </v>
   <v>       0.12500000       0.12500000       0.00000000 </v>
   <v>       0.25000000       0.12500000       0.00000000 </v>
   <v>       0.37500000       0.12500000       0.00000000 </v>
   <v>       0.50000000       0.12500000       0.00000000 </v>
   <v>       0.25000000       0.25000000       0.00000000 </v>
   <v>       0.37500000       0.25000000       0.00000000 </v>
   <v>       0.50000000       0.25000000       0.00000000 </v>
   <v>       0.37500000       0.37500000       0.00000000 </v>
   <v>       0.50000000       0.37500000       0.00000000 </v>
   <v>       0.50000000       0.50000000       0.00000000 </v>
   <v>       0.12500000       0.12500000       0.12500000 </v>
   <v>       0.25000000       0.12500000       0.12500000 </v>
   <v>       0.37500000       0.12500000       0.12500000 </v>
   <v>       0.50000000       0.12500000       0.12500000 </v>
   <v>       0.25000000       0.25000000       0.12500000 </v>
   <v>       0.37500000       0.25000000       0.12500000 </v>
   <v>       0.50000000       0.25000000       0.12500000 </v>
   <v>       0.37500000       0.37500000       0.12500000 </v>
   <v>       0.50000000       0.37500000       0.12500000 </v>
   <v>       0.50000000       0.50000000       0.12500000 </v>
   <v>       0.25000000       0.25000000       0.25000000 </v>
   <v>       0.37500000       0.25000000       0.25000000 </v>
   <v>       0.50000000       0.25000000       0.25000000 </v>
   <v>       0.37500000       0.37500000       0.25000000 </v>
   <v>       0.50000000       0.37500000       0.25000000 </v>
   <v>       0.50000000       0.50000000       0.25000000 </v>
   <v>       0.37500000       0.37500000       0.37500000 </v>
   <v>       0.50000000       0.37500000       0.37500000 </v>
   <v>       0.50000000       0.50000000       0.37500000 </v>
   <v>       0.50000000       0.50000000       0.50000000 </v>
  </varray>
  <varray name="weights" >
   <v>       0.00195313 </v>
   <v>       0.01171875 </v>
   <v>       0.01171875 </v>
   <v>       0.01171875 </v>
   <v>       0.00585938 </v>
   <v>       0.02343750 </v>
   <v>       0.04687500 </v>
   <v>       0.04687500 </v>
   <v>       0.02343750 </v>
   <v>       0.02343750 </v>
   <v>       0.04687500 </v>
   <v>       0.02343750 </v>
   <v>       0.02343750 </v>
   <v>       0.02343750 </v>
   <v>       0.00585938 </v>
   <v>       0.01562500 </v>
   <v>       0.04687500 </v>
   <v>       0.04687500 </v>
   <v>       0.02343750 </v>
   <v>       0.04687500 </v>
   <v>       0.09375000 </v>
   <v>       0.04687500 </v>
   <v>       0.04687500 </v>
   <v>       0.04687500 </v>
   <v>       0.01171875 </v>
   <v>       0.01562500 </v>
   <v>       0.04687500 </v>
   <v>       0.02343750 </v>
   <v>       0.04687500 </v>
   <v>       0.04687500 </v>
   <v>       0.01171875 </v>
   <v>       0.01562500 </v>
   <v>       0.02343750 </v>
   <v>       0.01171875 </v>
   <v>       0.00195313 </v>
  </varray>
  <varray name="tetrahedronlist"  type="int" >
   <v type="int" >       12        1        2        2        6 </v>
   <v type="int" >       12        2        2        6        6 </v>
   <v type="int" >       12        2        6        6       16 </v>
   <v type="int" >       12        2        3        6        7 </v>
   <v type="int" >       12        2        6        6        7 </v>
   <v type="int" >       12        6        6        7       16 </v>
   <v type="int" >       12        3        6        7        7 </v>
   <v type="int" >       24        6        7        7       17 </v>
   <v type="int" >       24        6        7       16       17 </v>
   <v type="int" >       12        3        4        7        8 </v>
   <v type="int" >       12        3        7        7        8 </v>
   <v type="int" >       12        7        7        8       17 </v>
   <v type="int" >       12        4        7        8        8 </v>
   <v type="int" >       12        7        8        8       18 </v>
   <v type="int" >       12        7        8       17       18 </v>
   <v type="int" >       12        4        5        8        9 </v>
   <v type="int" >       12        4        8        8        9 </v>
   <v type="int" >       12        8        8        9       18 </v>
   <v type="int" >       12        5        8        9        9 </v>
   <v type="int" >       12        8        9        9       19 </v>
   <v type="int" >       12        8        9       18       19 </v>
   <v type="int" >       12        6        7       10       16 </v>
   <v type="int" >       12        7       10       16       17 </v>
   <v type="int" >       12       10       16       17       20 </v>
   <v type="int" >       12        7        8       11       17 </v>
   <v type="int" >       12        7       10       11       17 </v>
   <v type="int" >       12       10       11       17       20 </v>
   <v type="int" >       12        8       11       17       18 </v>
   <v type="int" >       12       11       17       18       21 </v>
   <v type="int" >       12       11       17       20       21 </v>
   <v type="int" >       12        8        9       12       18 </v>
   <v type="int" >       12        8       11       12       18 </v>
   <v type="int" >       12       11       12       18       21 </v>
   <v type="int" >       12        9       12       18       19 </v>
   <v type="int" >       12       12       18       19       22 </v>
   <v type="int" >       12       12       18       21       22 </v>
   <v type="int" >       12        8        9       11       19 </v>
   <v type="int" >       12        9       11       12       19 </v>
   <v type="int" >       12       11       12       19       22 </v>
   <v type="int" >       12        8       11       18       19 </v>
   <v type="int" >       12       11       18       19       21 </v>
   <v type="int" >       12       11       19       21       22 </v>
   <v type="int" >       12        7        8       10       18 </v>
   <v type="int" >       12        8       10       11       18 </v>
   <v type="int" >       12       10       11       18       21 </v>
   <v type="int" >       12        7       10       17       18 </v>
   <v type="int" >       12       10       17       18       20 </v>
   <v type="int" >       12       10       18       20       21 </v>
   <v type="int" >       12        7        7       10       17 </v>
   <v type="int" >       12        7       10       17       20 </v>
   <v type="int" >       12        7       16       17       17 </v>
   <v type="int" >       12        7       17       17       20 </v>
   <v type="int" >       12        2        3        6       16 </v>
   <v type="int" >       12        3        6        7       16 </v>
   <v type="int" >       12        3        7       16       17 </v>
   <v type="int" >       12       10       11       13       20 </v>
   <v type="int" >       12       11       13       20       21 </v>
   <v type="int" >       12       13       20       21       23 </v>
   <v type="int" >       12       11       12       14       21 </v>
   <v type="int" >       12       11       13       14       21 </v>
   <v type="int" >       12       13       14       21       23 </v>
   <v type="int" >       12       12       14       21       22 </v>
   <v type="int" >       12       14       21       22       24 </v>
   <v type="int" >       12       14       21       23       24 </v>
   <v type="int" >       12       11       12       13       22 </v>
   <v type="int" >       12       12       13       14       22 </v>
   <v type="int" >       12       13       14       22       24 </v>
   <v type="int" >       12       11       13       21       22 </v>
   <v type="int" >       12       13       21       22       23 </v>
   <v type="int" >       12       13       22       23       24 </v>
   <v type="int" >       12       10       11       11       21 </v>
   <v type="int" >       12       11       11       13       21 </v>
   <v type="int" >       12       11       13       21       23 </v>
   <v type="int" >       12       10       11       20       21 </v>
   <v type="int" >       12       11       20       21       21 </v>
   <v type="int" >       12       11       21       21       23 </v>
   <v type="int" >       12        7        8       10       20 </v>
   <v type="int" >       12        8       10       11       20 </v>
   <v type="int" >       12        8       11       20       21 </v>
   <v type="int" >       12        7        8       17       20 </v>
   <v type="int" >       12        8       17       18       20 </v>
   <v type="int" >       12        8       18       20       21 </v>
   <v type="int" >       12        3        4        7       17 </v>
   <v type="int" >       12        4        7        8       17 </v>
   <v type="int" >       12        4        8       17       18 </v>
   <v type="int" >       12       13       14       15       23 </v>
   <v type="int" >       12       14       15       23       24 </v>
   <v type="int" >       12       15       23       24       25 </v>
   <v type="int" >       12       13       14       14       24 </v>
   <v type="int" >       12       14       14       15       24 </v>
   <v type="int" >       12       14       15       24       25 </v>
   <v type="int" >       12       13       14       23       24 </v>
   <v type="int" >       12       14       23       24       24 </v>
   <v type="int" >       12       14       24       24       25 </v>
   <v type="int" >       12       11       12       13       23 </v>
   <v type="int" >       12       12       13       14       23 </v>
   <v type="int" >       12       12       14       23       24 </v>
   <v type="int" >       12       11       12       21       23 </v>
   <v type="int" >       12       12       21       22       23 </v>
   <v type="int" >       12       12       22       23       24 </v>
   <v type="int" >       12        8        9       11       21 </v>
   <v type="int" >       12        9       11       12       21 </v>
   <v type="int" >       12        9       12       21       22 </v>
   <v type="int" >       12        8        9       18       21 </v>
   <v type="int" >       12        9       18       19       21 </v>
   <v type="int" >       12        9       19       21       22 </v>
   <v type="int" >       12        4        5        8       18 </v>
   <v type="int" >       12        5        8        9       18 </v>
   <v type="int" >       12        5        9       18       19 </v>
   <v type="int" >       12       13       14       15       25 </v>
   <v type="int" >       12       13       14       24       25 </v>
   <v type="int" >       12       13       23       24       25 </v>
   <v type="int" >       12       11       12       14       24 </v>
   <v type="int" >       12       11       13       14       24 </v>
   <v type="int" >       12       11       13       23       24 </v>
   <v type="int" >       12       11       12       22       24 </v>
   <v type="int" >       12       11       21       22       24 </v>
   <v type="int" >       12       11       21       23       24 </v>
   <v type="int" >       12        8        9       12       22 </v>
   <v type="int" >       12        8       11       12       22 </v>
   <v type="int" >       12        8       11       21       22 </v>
   <v type="int" >       12        8        9       19       22 </v>
   <v type="int" >       12        8       18       19       22 </v>
   <v type="int" >       12        8       18       21       22 </v>
   <v type="int" >       12        4        5        9       19 </v>
   <v type="int" >       12        4        8        9       19 </v>
   <v type="int" >       12        4        8       18       19 </v>
   <v type="int" >       12       10       11       13       23 </v>
   <v type="int" >       12       10       11       21       23 </v>
   <v type="int" >       12       10       20       21       23 </v>
   <v type="int" >       12        7        8       11       21 </v>
   <v type="int" >       12        7       10       11       21 </v>
   <v type="int" >       12        7       10       20       21 </v>
   <v type="int" >       12        7        8       18       21 </v>
   <v type="int" >       12        7       17       18       21 </v>
   <v type="int" >       12        7       17       20       21 </v>
   <v type="int" >       12        3        4        8       18 </v>
   <v type="int" >       12        3        7        8       18 </v>
   <v type="int" >       12        3        7       17       18 </v>
   <v type="int" >       12        6        7       10       20 </v>
   <v type="int" >       12        6        7       17       20 </v>
   <v type="int" >       12        6       16       17       20 </v>
   <v type="int" >       12        2        3        7       17 </v>
   <v type="int" >       12        2        6        7       17 </v>
   <v type="int" >       12        2        6       16       17 </v>
   <v type="int" >       12        1        2        6       16 </v>
   <v type="int" >       12       16       17       17       20 </v>
   <v type="int" >       12       17       17       20       20 </v>
   <v type="int" >       12       17       20       20       26 </v>
   <v type="int" >       12       17       18       20       21 </v>
   <v type="int" >       12       17       20       20       21 </v>
   <v type="int" >       12       20       20       21       26 </v>
   <v type="int" >       12       18       20       21       21 </v>
   <v type="int" >       24       20       21       21       27 </v>
   <v type="int" >       24       20       21       26       27 </v>
   <v type="int" >       12       18       19       21       22 </v>
   <v type="int" >       12       18       21       21       22 </v>
   <v type="int" >       12       21       21       22       27 </v>
   <v type="int" >       12       19       21       22       22 </v>
   <v type="int" >       12       21       22       22       28 </v>
   <v type="int" >       12       21       22       27       28 </v>
   <v type="int" >       12       20       21       23       26 </v>
   <v type="int" >       12       21       23       26       27 </v>
   <v type="int" >       12       23       26       27       29 </v>
   <v type="int" >       12       21       22       24       27 </v>
   <v type="int" >       12       21       23       24       27 </v>
   <v type="int" >       12       23       24       27       29 </v>
   <v type="int" >       12       22       24       27       28 </v>
   <v type="int" >       12       24       27       28       30 </v>
   <v type="int" >       12       24       27       29       30 </v>
   <v type="int" >       12       21       22       23       28 </v>
   <v type="int" >       12       22       23       24       28 </v>
   <v type="int" >       12       23       24       28       30 </v>
   <v type="int" >       12       21       23       27       28 </v>
   <v type="int" >       12       23       27       28       29 </v>
   <v type="int" >       12       23       28       29       30 </v>
   <v type="int" >       12       21       21       23       27 </v>
   <v type="int" >       12       21       23       27       29 </v>
   <v type="int" >       12       21       26       27       27 </v>
   <v type="int" >       12       21       27       27       29 </v>
   <v type="int" >       12       17       18       20       26 </v>
   <v type="int" >       12       18       20       21       26 </v>
   <v type="int" >       12       18       21       26       27 </v>
   <v type="int" >       12       23       24       25       29 </v>
   <v type="int" >       12       24       25       29       30 </v>
   <v type="int" >       12       25       29       30       31 </v>
   <v type="int" >       12       23       24       24       30 </v>
   <v type="int" >       12       24       24       25       30 </v>
   <v type="int" >       12       24       25       30       31 </v>
   <v type="int" >       12       23       24       29       30 </v>
   <v type="int" >       12       24       29       30       30 </v>
   <v type="int" >       12       24       30       30       31 </v>
   <v type="int" >       12       21       22       23       29 </v>
   <v type="int" >       12       22       23       24       29 </v>
   <v type="int" >       12       22       24       29       30 </v>
   <v type="int" >       12       21       22       27       29 </v>
   <v type="int" >       12       22       27       28       29 </v>
   <v type="int" >       12       22       28       29       30 </v>
   <v type="int" >       12       18       19       21       27 </v>
   <v type="int" >       12       19       21       22       27 </v>
   <v type="int" >       12       19       22       27       28 </v>
   <v type="int" >       12       23       24       25       31 </v>
   <v type="int" >       12       23       24       30       31 </v>
   <v type="int" >       12       23       29       30       31 </v>
   <v type="int" >       12       21       22       24       30 </v>
   <v type="int" >       12       21       23       24       30 </v>
   <v type="int" >       12       21       23       29       30 </v>
   <v type="int" >       12       21       22       28       30 </v>
   <v type="int" >       12       21       27       28       30 </v>
   <v type="int" >       12       21       27       29       30 </v>
   <v type="int" >       12       18       19       22       28 </v>
   <v type="int" >       12       18       21       22       28 </v>
   <v type="int" >       12       18       21       27       28 </v>
   <v type="int" >       12       20       21       23       29 </v>
   <v type="int" >       12       20       21       27       29 </v>
   <v type="int" >       12       20       26       27       29 </v>
   <v type="int" >       12       17       18       21       27 </v>
   <v type="int" >       12       17       20       21       27 </v>
   <v type="int" >       12       17       20       26       27 </v>
   <v type="int" >       12       16       17       20       26 </v>
   <v type="int" >       12       26       27       27       29 </v>
   <v type="int" >       12       27       27       29       29 </v>
   <v type="int" >       12       27       29       29       32 </v>
   <v type="int" >       12       27       28       29       30 </v>
   <v type="int" >       12       27       29       29       30 </v>
   <v type="int" >       12       29       29       30       32 </v>
   <v type="int" >       12       28       29       30       30 </v>
   <v type="int" >       24       29       30       30       33 </v>
   <v type="int" >       24       29       30       32       33 </v>
   <v type="int" >       12       29       30       31       32 </v>
   <v type="int" >       12       30       31       32       33 </v>
   <v type="int" >       12       31       32       33       34 </v>
   <v type="int" >       12       30       30       31       33 </v>
   <v type="int" >       12       30       31       33       34 </v>
   <v type="int" >       12       30       32       33       33 </v>
   <v type="int" >       12       30       33       33       34 </v>
   <v type="int" >       12       27       28       29       32 </v>
   <v type="int" >       12       28       29       30       32 </v>
   <v type="int" >       12       28       30       32       33 </v>
   <v type="int" >       12       29       30       31       34 </v>
   <v type="int" >       12       29       30       33       34 </v>
   <v type="int" >       12       29       32       33       34 </v>
   <v type="int" >       12       27       28       30       33 </v>
   <v type="int" >       12       27       29       30       33 </v>
   <v type="int" >       12       27       29       32       33 </v>
   <v type="int" >       12       26       27       29       32 </v>
   <v type="int" >       12       32       33       33       34 </v>
   <v type="int" >       12       33       33       34       34 </v>
   <v type="int" >       12       33       34       34       35 </v>
   <v type="int" >       12       32       33       34       35 </v>
  </varray>
  <i name="volumeweight">      0.00032552 </i>
 </kpoints>
 <parameters>
  <separator name="general" >
   <i type="string" name="SYSTEM">unknown system</i>
   <i type="logical" name="LCOMPAT"> F  </i>
  </separator>
  <separator name="electronic" >
   <i type="string" name="PREC">accura</i>
   <i name="ENMAX">    400.00000000</i>
   <i name="ENAUG">    644.87300000</i>
   <i name="EDIFF">      0.00000100</i>
   <i type="int" name="IALGO">    38</i>
   <i type="int" name="IWAVPR">    11</i>
   <i type="int" name="NBANDS">    28</i>
   <i name="NELECT">     32.00000000</i>
   <i type="int" name="TURBO">     0</i>
   <i type="int" name="IRESTART">     0</i>
   <i type="int" name="NREBOOT">     0</i>
   <i type="int" name="NMIN">     0</i>
   <i name="EREF">      0.00000000</i>
   <separator name="electronic smearing" >
    <i type="int" name="ISMEAR">    -5</i>
    <i name="SIGMA">      0.01000000</i>
    <i name="KSPACING">      0.50000000</i>
    <i type="logical" name="KGAMMA"> T  </i>
   </separator>
   <separator name="electronic projectors" >
    <i type="logical" name="LREAL"> F  </i>
    <v name="ROPT">      0.00000000</v>
    <i type="int" name="LMAXPAW">  -100</i>
    <i type="int" name="LMAXMIX">     2</i>
    <i type="logical" name="NLSPLINE"> F  </i>
   </separator>
   <separator name="electronic startup" >
    <i type="int" name="ISTART">     0</i>
    <i type="int" name="ICHARG">     0</i>
    <i type="int" name="INIWAV">     1</i>
   </separator>
   <separator name="electronic spin" >
    <i type="int" name="ISPIN">     2</i>
    <i type="logical" name="LNONCOLLINEAR"> F  </i>
    <v name="MAGMOM">      1.00000000      1.00000000      1.00000000      1.00000000      1.00000000      1.00000000      1.00000000      1.00000000</v>
    <i name="NUPDOWN">     -1.00000000</i>
    <i type="logical" name="LSORBIT"> F  </i>
    <v name="SAXIS">      0.00000000      0.00000000      1.00000000</v>
    <i type="logical" name="LSPIRAL"> F  </i>
    <v name="QSPIRAL">      0.00000000      0.00000000      0.00000000</v>
    <i type="logical" name="LZEROZ"> F  </i>
   </separator>
   <separator name="electronic exchange-correlation" >
    <i type="logical" name="LASPH"> F  </i>
    <i type="logical" name="LMETAGGA"> F  </i>
   </separator>
   <separator name="electronic convergence" >
    <i type="int" name="NELM">    60</i>
    <i type="int" name="NELMDL">    -5</i>
    <i type="int" name="NELMIN">     2</i>
    <i name="ENINI">    400.00000000</i>
    <separator name="electronic convergence detail" >
     <i type="logical" name="LDIAG"> T  </i>
     <i type="logical" name="LSUBROT"> F  </i>
     <i name="WEIMIN">      0.00100000</i>
     <i name="EBREAK">      0.00000001</i>
     <i name="DEPER">      0.30000000</i>
     <i type="int" name="NRMM">     4</i>
     <i name="TIME">      0.40000000</i>
    </separator>
   </separator>
   <separator name="electronic mixer" >
    <i name="AMIX">      0.40000000</i>
    <i name="BMIX">      1.00000000</i>
    <i name="AMIN">      0.10000000</i>
    <i name="AMIX_MAG">      1.60000000</i>
    <i name="BMIX_MAG">      1.00000000</i>
    <separator name="electronic mixer details" >
     <i type="int" name="IMIX">     4</i>
     <i type="logical" name="MIXFIRST"> F  </i>
     <i type="int" name="MAXMIX">   -45</i>
     <i name="WC">    100.00000000</i>
     <i type="int" name="INIMIX">     1</i>
     <i type="int" name="MIXPRE">     1</i>
     <i type="int" name="MREMOVE">     5</i>
    </separator>
   </separator>
   <separator name="electronic dipolcorrection" >
    <i type="logical" name="LDIPOL"> F  </i>
    <i type="logical" name="LMONO"> F  </i>
    <i type="int" name="IDIPOL">     0</i>
    <i name="EPSILON">      1.00000000</i>
    <v name="DIPOL">   -100.00000000   -100.00000000   -100.00000000</v>
    <i name="EFIELD">      0.00000000</i>
   </separator>
  </separator>
  <separator name="grids" >
   <i type="int" name="NGX">    24</i>
   <i type="int" name="NGY">    24</i>
   <i type="int" name="NGZ">    24</i>
   <i type="int" name="NGXF">    48</i>
   <i type="int" name="NGYF">    48</i>
   <i type="int" name="NGZF">    48</i>
   <i type="logical" name="ADDGRID"> F  </i>
  </separator>
  <separator name="ionic" >
   <i type="int" name="NSW">   100</i>
   <i type="int" name="IBRION">     2</i>
   <i type="int" name="MDALGO">     0</i>
   <i type="int" name="ISIF">     3</i>
   <i name="PSTRESS">    750.00000000</i>
   <i name="EDIFFG">      0.00010000</i>
   <i type="int" name="NFREE">     1</i>
   <i name="POTIM">      0.01500000</i>
   <i name="SMASS">     -3.00000000</i>
   <i name="SCALEE">      1.00000000</i>
  </separator>
  <separator name="ionic md" >
   <i name="TEBEG">      0.00010000</i>
   <i name="TEEND">      0.00010000</i>
   <i type="int" name="NBLOCK">     1</i>
   <i type="int" name="KBLOCK">   100</i>
   <i type="int" name="NPACO">   256</i>
   <i name="APACO">     16.00000000</i>
  </separator>
  <separator name="symmetry" >
   <i type="int" name="ISYM">     2</i>
   <i name="SYMPREC">      0.00010000</i>
  </separator>
  <separator name="dos" >
   <i type="int" name="LORBIT">    11</i>
   <v name="RWIGS">     -1.00000000</v>
   <i type="int" name="NEDOS">   301</i>
   <i name="EMIN">     10.00000000</i>
   <i name="EMAX">    -10.00000000</i>
   <i name="EFERMI">      0.00000000</i>
  </separator>
  <separator name="writing" >
   <i type="int" name="NWRITE">     0</i>
   <i type="logical" name="LWAVE"> F  </i>
   <i type="logical" name="LDOWNSAMPLE"> F  </i>
   <i type="logical" name="LCHARG"> F  </i>
   <i type="logical" name="LPARD"> F  </i>
   <i type="logical" name="LVTOT"> F  </i>
   <i type="logical" name="LVHAR"> F  </i>
   <i type="logical" name="LELF"> F  </i>
   <i type="logical" name="LOPTICS"> F  </i>
   <v name="STM">      0.00000000      0.00000000      0.00000000      0.00000000      0.00000000      0.00000000      0.00000000</v>
  </separator>
  <separator name="performance" >
   <i type="int" name="NPAR">     4</i>
   <i type="int" name="NSIM">     4</i>
   <i type="int" name="NBLK">    -1</i>
   <i type="logical" name="LPLANE"> T  </i>
   <i type="logical" name="LSCALAPACK"> T  </i>
   <i type="logical" name="LSCAAWARE"> F  </i>
   <i type="logical" name="LSCALU"> F  </i>
   <i type="logical" name="LASYNC"> F  </i>
   <i type="logical" name="LORBITALREAL"> F  </i>
  </separator>
  <separator name="miscellaneous" >
   <i type="int" name="IDIOT">     3</i>
   <i type="int" name="ISPECIAL">     0</i>
   <i type="logical" name="LMUSIC"> F  </i>
   <v name="POMASS">     12.01100000</v>
   <v name="DARWINR">      0.00000000</v>
   <v name="DARWINV">      1.00000000</v>
   <i type="logical" name="LCORR"> T  </i>
  </separator>
  <i type="logical" name="GGA_COMPAT"> T  </i>
  <i type="logical" name="LBERRY"> F  </i>
  <i type="int" name="ICORELEVEL">     0</i>
  <i type="logical" name="LDAU"> F  </i>
  <i type="int" name="I_CONSTRAINED_M">     0</i>
  <separator name="electronic exchange-correlation" >
   <i type="string" name="GGA">--</i>
   <i type="int" name="VOSKOWN">     0</i>
   <i type="logical" name="LHFCALC"> F  </i>
   <i type="string" name="PRECFOCK"></i>
   <i type="logical" name="LSYMGRAD"> F  </i>
   <i type="logical" name="LHFONE"> F  </i>
   <i type="logical" name="LRHFCALC"> F  </i>
   <i type="logical" name="LTHOMAS"> F  </i>
   <i type="logical" name="LMODELHF"> F  </i>
   <i name="ENCUT4O">     -1.00000000</i>
   <i type="int" name="EXXOEP">     0</i>
   <i type="int" name="FOURORBIT">     0</i>
   <i name="AEXX">      0.00000000</i>
   <i name="HFALPHA">      0.00000000</i>
   <i name="MCALPHA">      0.00000000</i>
   <i name="ALDAX">      1.00000000</i>
   <i name="AGGAX">      1.00000000</i>
   <i name="ALDAC">      1.00000000</i>
   <i name="AGGAC">      1.00000000</i>
   <i type="int" name="NKREDX">     1</i>
   <i type="int" name="NKREDY">     1</i>
   <i type="int" name="NKREDZ">     1</i>
   <i type="logical" name="SHIFTRED"> F  </i>
   <i type="logical" name="ODDONLY"> F  </i>
   <i type="logical" name="EVENONLY"> F  </i>
   <i type="int" name="LMAXFOCK">     0</i>
   <i type="int" name="NMAXFOCKAE">     0</i>
   <i type="logical" name="LFOCKAEDFT"> F  </i>
   <i name="HFSCREEN">      0.00000000</i>
   <i name="HFSCREENC">      0.00000000</i>
   <i type="int" name="NBANDSGWLOW">     0</i>
  </separator>
  <separator name="vdW DFT" >
   <i type="logical" name="LUSE_VDW"> F  </i>
   <i name="Zab_VDW">     -0.84910000</i>
   <i name="PARAM1">      0.12340000</i>
   <i name="PARAM2">      1.00000000</i>
   <i name="PARAM3">      0.00000000</i>
  </separator>
  <separator name="model GW" >
   <i type="int" name="MODEL_GW">     0</i>
   <i name="MODEL_EPS0">      3.24849994</i>
   <i name="MODEL_ALPHA">      1.00000000</i>
  </separator>
  <separator name="linear response parameters" >
   <i type="logical" name="LEPSILON"> F  </i>
   <i type="logical" name="LRPA"> F  </i>
   <i type="logical" name="LNABLA"> F  </i>
   <i type="logical" name="LVEL"> F  </i>
   <i type="int" name="KINTER">     0</i>
   <i name="CSHIFT">      0.10000000</i>
   <i name="OMEGAMAX">     -1.00000000</i>
   <i name="DEG_THRESHOLD">      0.00200000</i>
   <i name="RTIME">     -0.10000000</i>
   <i name="WPLASMAI">      0.00000000</i>
   <v name="DFIELD">      0.00000000      0.00000000      0.00000000</v>
   <v name="WPLASMA">      0.00000000      0.00000000      0.00000000      0.00000000      0.00000000      0.00000000      0.00000000      0.00000000      0.00000000</v>
  </separator>
  <separator name="orbital magnetization" >
   <i type="logical" name="NUCIND"> F  </i>
   <v name="MAGPOS">      0.00000000      0.00000000      0.00000000</v>
   <i type="logical" name="LNICSALL"> T  </i>
   <i type="logical" name="ORBITALMAG"> F  </i>
   <i type="logical" name="LMAGBLOCH"> F  </i>
   <i type="logical" name="LCHIMAG"> F  </i>
   <i type="logical" name="LGAUGE"> T  </i>
   <i type="int" name="MAGATOM">     0</i>
   <v name="MAGDIPOL">      0.00000000      0.00000000      0.00000000</v>
   <v name="AVECCONST">      0.00000000      0.00000000      0.00000000</v>
  </separator>
  <separator name="response functions" >
   <i type="logical" name="LADDER"> F  </i>
   <i type="logical" name="LRPAFORCE"> F  </i>
   <i type="logical" name="LFXC"> F  </i>
   <i type="logical" name="LHARTREE"> T  </i>
   <i type="int" name="IBSE">     0</i>
   <v type="int" name="KPOINT">    -1     0     0     0</v>
   <i type="logical" name="LTCTE"> F  </i>
   <i type="logical" name="LTETE"> F  </i>
   <i type="logical" name="LTRIPLET"> F  </i>
   <i type="logical" name="LFXCEPS"> F  </i>
   <i type="logical" name="LFXHEG"> F  </i>
   <i type="int" name="NATURALO">     2</i>
   <i type="logical" name="L2ORDER"> F  </i>
   <i type="logical" name="LMP2LT"> F  </i>
   <i type="logical" name="LUSEW"> F  </i>
   <i name="ENCUTGW">     -2.00000000</i>
   <i name="ENCUTGWSOFT">     -2.00000000</i>
   <i name="ENCUTLF">     -1.00000000</i>
   <i type="int" name="LMAXMP2">    -1</i>
   <i name="SCISSOR">      0.00000000</i>
   <i type="int" name="NOMEGA">     0</i>
   <i type="int" name="NOMEGAR">     0</i>
   <i type="int" name="NBANDSGW">    -1</i>
   <i type="int" name="NBANDSO">    -1</i>
   <i type="int" name="NBANDSV">    -1</i>
   <i type="int" name="NELM">     1</i>
   <i type="int" name="NELMHF">     1</i>
   <i type="int" name="DIM">     3</i>
   <i type="int" name="ANTIRES">     0</i>
   <i name="OMEGAMAX">    -30.00000000</i>
   <i name="OMEGAMIN">    -30.00000000</i>
   <i name="OMEGATL">   -200.00000000</i>
   <i type="int" name="OMEGAGRID">   140</i>
   <i name="CSHIFT">     -0.10000000</i>
   <i type="logical" name="SELFENERGY"> F  </i>
   <i type="logical" name="LSPECTRAL"> F  </i>
   <i type="logical" name="LSPECTRALGW"> F  </i>
   <i type="logical" name="LSINGLES"> F  </i>
   <i type="logical" name="LFERMIGW"> F  </i>
   <i type="logical" name="ODDONLYGW"> F  </i>
   <i type="logical" name="EVENONLYGW"> F  </i>
   <i type="int" name="NKREDLFX">     1</i>
   <i type="int" name="NKREDLFY">     1</i>
   <i type="int" name="NKREDLFZ">     1</i>
   <i type="int" name="MAXMEM">  2800</i>
   <i type="int" name="TELESCOPE">     0</i>
   <i type="int" name="TAUPAR">     1</i>
   <i type="int" name="OMEGAPAR">    -1</i>
   <i name="LAMBDA">      1.00000000</i>
  </separator>
  <separator name="External order field" >
   <i name="OFIELD_KAPPA">      0.00000000</i>
   <v name="OFIELD_K">      0.00000000      0.00000000      0.00000000</v>
   <i name="OFIELD_Q6_NEAR">      0.00000000</i>
   <i name="OFIELD_Q6_FAR">      0.00000000</i>
   <i name="OFIELD_A">      0.00000000</i>
  </separator>
 </parameters>
 <atominfo>
  <atoms>       8 </atoms>
  <types>       1 </types>
  <array name="atoms" >
   <dimension dim="1">ion</dimension>
   <field type="string">element</field>
   <field type="int">atomtype</field>
   <set>
    <rc><c>C </c><c>   1</c></rc>
    <rc><c>C </c><c>   1</c></rc>
    <rc><c>C </c><c>   1</c></rc>
    <rc><c>C </c><c>   1</c></rc>
    <rc><c>C </c><c>   1</c></rc>
    <rc><c>C </c><c>   1</c></rc>
    <rc><c>C </c><c>   1</c></rc>
    <rc><c>C </c><c>   1</c></rc>
   </set>
  </array>
  <array name="atomtypes" >
   <dimension dim="1">type</dimension>
   <field type="int">atomspertype</field>
   <field type="string">element</field>
   <field>mass</field>
   <field>valence</field>
   <field type="string">pseudopotential</field>
   <set>
    <rc><c>   8</c><c>C </c><c>     12.01100000</c><c>      4.00000000</c><c> PAW_PBE C 08Apr2002                    </c></rc>
   </set>
  </array>
 </atominfo>
 <structure name="initialpos" >
  <crystal>
   <varray name="basis" >
    <v>       3.51188700      -0.00000000      -0.00000000 </v>
    <v>       0.00000000       3.51188700      -0.00000000 </v>
    <v>       0.00000000       0.00000000       3.51188700 </v>
   </varray>
   <i name="volume">     43.31333259 </i>
   <varray name="rec_basis" >
    <v>       0.28474720      -0.00000000       0.00000000 </v>
    <v>       0.00000000       0.28474720      -0.00000000 </v>
    <v>       0.00000000       0.00000000       0.28474720 </v>
   </varray>
  </crystal>
  <varray name="positions" >
   <v>       0.75669600       0.75669600       0.75669600 </v>
   <v>       0.00669500       0.50669600       0.00669500 </v>
   <v>       0.50669600       0.50669600       0.50669600 </v>
   <v>       0.00669500       0.00669500       0.50669600 </v>
   <v>       0.50669600       0.00669500       0.00669500 </v>
   <v>       0.75669600       0.25669600       0.25669600 </v>
   <v>       0.25669600       0.25669600       0.75669600 </v>
   <v>       0.25669600       0.75669600       0.25669600 </v>
  </varray>
 </structure>
 <calculation>
  <scstep>
   <time name="dav">    0.60    0.60</time>
   <time name="total">    0.66    0.66</time>
   <energy>
    <i name="alphaZ">    120.39550375 </i>
    <i name="ewald">  -1413.59899669 </i>
    <i name="hartreedc">     -2.58221799 </i>
    <i name="XCdc">    109.41487070 </i>
    <i name="pawpsdc">    103.69076704 </i>
    <i name="pawaedc">   -108.69556966 </i>
    <i name="eentropy">      0.00000000 </i>
    <i name="bandstr">    -33.51295717 </i>
    <i name="atom">   1177.01779097 </i>
    <i name="e_fr_energy">    -47.87080904 </i>
    <i name="e_wo_entrp">    -47.87080904 </i>
    <i name="e_0_energy">    -47.87080904 </i>
   </energy>
  </scstep>
  <scstep>
   <time name="dav">    0.72    0.72</time>
   <time name="total">    0.72    0.73</time>
   <energy>
    <i name="e_fr_energy">   -179.37952034 </i>
    <i name="e_wo_entrp">   -179.37952034 </i>
    <i name="e_0_energy">   -179.37952034 </i>
   </energy>
  </scstep>
  <scstep>
   <time name="dav">    0.73    0.73</time>
   <time name="total">    0.74    0.74</time>
   <energy>
    <i name="e_fr_energy">   -184.66525852 </i>
    <i name="e_wo_entrp">   -184.66525852 </i>
    <i name="e_0_energy">   -184.66525852 </i>
   </energy>
  </scstep>
  <scstep>
   <time name="dav">    0.70    0.70</time>
   <time name="total">    0.71    0.71</time>
   <energy>
    <i name="e_fr_energy">   -184.74605421 </i>
    <i name="e_wo_entrp">   -184.74605421 </i>
    <i name="e_0_energy">   -184.74605421 </i>
   </energy>
  </scstep>
  <scstep>
   <time name="dav">    0.75    0.75</time>
   <time name="total">    0.78    0.78</time>
   <energy>
    <i name="e_fr_energy">   -184.74812255 </i>
    <i name="e_wo_entrp">   -184.74812255 </i>
    <i name="e_0_energy">   -184.74812255 </i>
   </energy>
  </scstep>
  <scstep>
   <time name="dav">    0.62    0.62</time>
   <time name="total">    0.67    0.67</time>
   <energy>
    <i name="e_fr_energy">   -102.46394007 </i>
    <i name="e_wo_entrp">   -102.46394007 </i>
    <i name="e_0_energy">   -102.46394007 </i>
   </energy>
  </scstep>
  <scstep>
   <time name="dav">    0.66    0.66</time>
   <time name="total">    0.71    0.71</time>
   <energy>
    <i name="e_fr_energy">    -72.27754937 </i>
    <i name="e_wo_entrp">    -72.27754937 </i>
    <i name="e_0_energy">    -72.27754937 </i>
   </energy>
  </scstep>
  <scstep>
   <time name="dav">    0.67    0.67</time>
   <time name="total">    0.72    0.72</time>
   <energy>
    <i name="e_fr_energy">    -72.53052689 </i>
    <i name="e_wo_entrp">    -72.53052689 </i>
    <i name="e_0_energy">    -72.53052689 </i>
   </energy>
  </scstep>
  <scstep>
   <time name="dav">    0.65    0.65</time>
   <time name="total">    0.70    0.70</time>
   <energy>
    <i name="e_fr_energy">    -72.57042023 </i>
    <i name="e_wo_entrp">    -72.57042023 </i>
    <i name="e_0_energy">    -72.57042023 </i>
   </energy>
  </scstep>
  <scstep>
   <time name="dav">    0.65    0.65</time>
   <time name="total">    0.69    0.70</time>
   <energy>
    <i name="e_fr_energy">    -72.58145661 </i>
    <i name="e_wo_entrp">    -72.58145661 </i>
    <i name="e_0_energy">    -72.58145661 </i>
   </energy>
  </scstep>
  <scstep>
   <time name="dav">    0.67    0.67</time>
   <time name="total">    0.72    0.72</time>
   <energy>
    <i name="e_fr_energy">    -72.58204422 </i>
    <i name="e_wo_entrp">    -72.58204422 </i>
    <i name="e_0_energy">    -72.58204422 </i>
   </energy>
  </scstep>
  <scstep>
   <time name="dav">    0.63    0.63</time>
   <time name="total">    0.68    0.68</time>
   <energy>
    <i name="e_fr_energy">    -72.58236408 </i>
    <i name="e_wo_entrp">    -72.58236408 </i>
    <i name="e_0_energy">    -72.58236408 </i>
   </energy>
  </scstep>
  <scstep>
   <time name="dav">    0.67    0.67</time>
   <time name="total">    0.71    0.72</time>
   <energy>
    <i name="e_fr_energy">    -72.58237272 </i>
    <i name="e_wo_entrp">    -72.58237272 </i>
    <i name="e_0_energy">    -72.58237272 </i>
   </energy>
  </scstep>
  <scstep>
   <time name="dav">    0.51    0.51</time>
   <time name="total">    0.53    0.53</time>
   <energy>
    <i name="alphaZ">    120.39550375 </i>
    <i name="ewald">  -1413.59899669 </i>
    <i name="hartreedc">   -102.89108229 </i>
    <i name="XCdc">    119.03953734 </i>
    <i name="pawpsdc">    552.06651088 </i>
    <i name="pawaedc">   -562.31275548 </i>
    <i name="eentropy">      0.00000000 </i>
    <i name="bandstr">     37.70111815 </i>
    <i name="atom">   1177.01779097 </i>
    <i name="e_fr_energy">    -72.58237338 </i>
    <i name="e_wo_entrp">    -72.58237338 </i>
    <i name="e_0_energy">    -72.58237338 </i>
   </energy>
  </scstep>
  <structure>
   <crystal>
    <varray name="basis" >
     <v>       3.51188700      -0.00000000      -0.00000000 </v>
     <v>       0.00000000       3.51188700      -0.00000000 </v>
     <v>       0.00000000       0.00000000       3.51188700 </v>
    </varray>
    <i name="volume">     43.31333259 </i>
    <varray name="rec_basis" >
     <v>       0.28474720      -0.00000000       0.00000000 </v>
     <v>       0.00000000       0.28474720      -0.00000000 </v>
     <v>       0.00000000       0.00000000       0.28474720 </v>
    </varray>
   </crystal>
   <varray name="positions" >
    <v>       0.75669600       0.75669600       0.75669600 </v>
    <v>       0.00669500       0.50669600       0.00669500 </v>
    <v>       0.50669600       0.50669600       0.50669600 </v>
    <v>       0.00669500       0.00669500       0.50669600 </v>
    <v>       0.50669600       0.00669500       0.00669500 </v>
    <v>       0.75669600       0.25669600       0.25669600 </v>
    <v>       0.25669600       0.25669600       0.75669600 </v>
    <v>       0.25669600       0.75669600       0.25669600 </v>
   </varray>
  </structure>
  <varray name="forces" >
   <v>       0.00000000       0.00000000       0.00000000 </v>
   <v>      -0.00000000      -0.00000000      -0.00000000 </v>
   <v>       0.00000000       0.00000000      -0.00000000 </v>
   <v>      -0.00000000       0.00000000      -0.00000000 </v>
   <v>       0.00000000      -0.00000000      -0.00000000 </v>
   <v>       0.00000000      -0.00000000       0.00000000 </v>
   <v>       0.00000000       0.00000000       0.00000000 </v>
   <v>      -0.00000000      -0.00000000       0.00000000 </v>
  </varray>
  <varray name="stress" >
   <v>     207.46135423      -0.00000000       0.00000000 </v>
   <v>      -0.00000000     207.46135423      -0.00000000 </v>
   <v>       0.00000000      -0.00000000     207.46135423 </v>
  </varray>
  <energy>
   <i name="e_fr_energy">    -52.30684031 </i>
   <i name="e_wo_entrp">    -52.30684031 </i>
   <i name="e_0_energy">      0.00000000 </i>
  </energy>
  <time name="totalsc">    9.92    9.94</time>
 </calculation>
 <calculation>
  <scstep>
   <time name="dav">    0.62    0.62</time>
   <time name="total">    0.66    0.67</time>
   <energy>
    <i name="alphaZ">    121.35898771 </i>
    <i name="ewald">  -1417.35983168 </i>
    <i name="hartreedc">   -103.16720791 </i>
    <i name="XCdc">    119.34020877 </i>
    <i name="pawpsdc">    552.06875787 </i>
    <i name="pawaedc">   -562.31468184 </i>
    <i name="eentropy">      0.00000000 </i>
    <i name="bandstr">     40.52188667 </i>
    <i name="atom">   1177.01779097 </i>
    <i name="e_fr_energy">    -72.53408943 </i>
    <i name="e_wo_entrp">    -72.53408943 </i>
    <i name="e_0_energy">    -72.53408943 </i>
   </energy>
  </scstep>
  <scstep>
   <time name="dav">    0.67    0.67</time>
   <time name="total">    0.72    0.72</time>
   <energy>
    <i name="e_fr_energy">    -72.53341646 </i>
    <i name="e_wo_entrp">    -72.53341646 </i>
    <i name="e_0_energy">    -72.53341646 </i>
   </energy>
  </scstep>
  <scstep>
   <time name="dav">    0.61    0.61</time>
   <time name="total">    0.66    0.66</time>
   <energy>
    <i name="e_fr_energy">    -72.53311469 </i>
    <i name="e_wo_entrp">    -72.53311469 </i>
    <i name="e_0_energy">    -72.53311469 </i>
   </energy>
  </scstep>
  <scstep>
   <time name="dav">    0.65    0.65</time>
   <time name="total">    0.67    0.67</time>
   <energy>
    <i name="alphaZ">    121.35898771 </i>
    <i name="ewald">  -1417.35983168 </i>
    <i name="hartreedc">   -102.46546751 </i>
    <i name="XCdc">    119.27493235 </i>
    <i name="pawpsdc">    556.22263543 </i>
    <i name="pawaedc">   -566.49209055 </i>
    <i name="eentropy">      0.00000000 </i>
    <i name="bandstr">     39.90992878 </i>
    <i name="atom">   1177.01779097 </i>
    <i name="e_fr_energy">    -72.53311449 </i>
    <i name="e_wo_entrp">    -72.53311449 </i>
    <i name="e_0_energy">    -72.53311449 </i>
   </energy>
  </scstep>
  <structure>
   <crystal>
    <varray name="basis" >
     <v>       3.50256853      -0.00000000       0.00000000 </v>
     <v>      -0.00000000       3.50256853      -0.00000000 </v>
     <v>       0.00000000      -0.00000000       3.50256853 </v>
    </varray>
    <i name="volume">     42.96946270 </i>
    <varray name="rec_basis" >
     <v>       0.28550476       0.00000000      -0.00000000 </v>
     <v>       0.00000000       0.28550476       0.00000000 </v>
     <v>      -0.00000000       0.00000000       0.28550476 </v>
    </varray>
   </crystal>
   <varray name="positions" >
    <v>       0.75669600       0.75669600       0.75669600 </v>
    <v>       0.00669500       0.50669600       0.00669500 </v>
    <v>       0.50669600       0.50669600       0.50669600 </v>
    <v>       0.00669500       0.00669500       0.50669600 </v>
    <v>       0.50669600       0.00669500       0.00669500 </v>
    <v>       0.75669600       0.25669600       0.25669600 </v>
    <v>       0.25669600       0.25669600       0.75669600 </v>
    <v>       0.25669600       0.75669600       0.25669600 </v>
   </varray>
  </structure>
  <varray name="forces" >
   <v>       0.00000000      -0.00000000       0.00000000 </v>
   <v>      -0.00000000       0.00000000      -0.00000000 </v>
   <v>       0.00000000       0.00000000      -0.00000000 </v>
   <v>       0.00000000      -0.00000000      -0.00000000 </v>
   <v>       0.00000000      -0.00000000       0.00000000 </v>
   <v>      -0.00000000      -0.00000000       0.00000000 </v>
   <v>      -0.00000000       0.00000000      -0.00000000 </v>
   <v>      -0.00000000      -0.00000000       0.00000000 </v>
  </varray>
  <varray name="stress" >
   <v>     252.01537611       0.00000000      -0.00000000 </v>
   <v>       0.00000000     252.01537611       0.00000000 </v>
   <v>      -0.00000000       0.00000000     252.01537611 </v>
  </varray>
  <energy>
   <i name="e_fr_energy">    -52.41855137 </i>
   <i name="e_wo_entrp">    -52.41855137 </i>
   <i name="e_0_energy">      0.00000000 </i>
  </energy>
  <time name="totalsc">    2.90    2.92</time>
 </calculation>
 <calculation>
  <scstep>
   <time name="dav">    0.61    0.61</time>
   <time name="total">    0.66    0.66</time>
   <energy>
    <i name="alphaZ">    124.31184306 </i>
    <i name="ewald">  -1428.76336962 </i>
    <i name="hartreedc">   -103.29161371 </i>
    <i name="XCdc">    120.18555521 </i>
    <i name="pawpsdc">    556.47046298 </i>
    <i name="pawaedc">   -566.74249399 </i>
    <i name="eentropy">      0.00000000 </i>
    <i name="bandstr">     48.47446632 </i>
    <i name="atom">   1177.01779097 </i>
    <i name="e_fr_energy">    -72.33735878 </i>
    <i name="e_wo_entrp">    -72.33735878 </i>
    <i name="e_0_energy">    -72.33735878 </i>
   </energy>
  </scstep>
  <scstep>
   <time name="dav">    0.67    0.67</time>
   <time name="total">    0.71    0.72</time>
   <energy>
    <i name="e_fr_energy">    -72.33122697 </i>
    <i name="e_wo_entrp">    -72.33122697 </i>
    <i name="e_0_energy">    -72.33122697 </i>
   </energy>
  </scstep>
  <scstep>
   <time name="dav">    0.61    0.61</time>
   <time name="total">    0.66    0.66</time>
   <energy>
    <i name="e_fr_energy">    -72.32844803 </i>
    <i name="e_wo_entrp">    -72.32844803 </i>
    <i name="e_0_energy">    -72.32844803 </i>
   </energy>
  </scstep>
  <scstep>
   <time name="dav">    0.66    0.66</time>
   <time name="total">    0.71    0.71</time>
   <energy>
    <i name="e_fr_energy">    -72.32843916 </i>
    <i name="e_wo_entrp">    -72.32843916 </i>
    <i name="e_0_energy">    -72.32843916 </i>
   </energy>
  </scstep>
  <scstep>
   <time name="dav">    0.56    0.56</time>
   <time name="total">    0.61    0.61</time>
   <energy>
    <i name="e_fr_energy">    -72.32843814 </i>
    <i name="e_wo_entrp">    -72.32843814 </i>
    <i name="e_0_energy">    -72.32843814 </i>
   </energy>
  </scstep>
  <scstep>
   <time name="dav">    0.45    0.45</time>
   <time name="total">    0.47    0.47</time>
   <energy>
    <i name="alphaZ">    124.31184306 </i>
    <i name="ewald">  -1428.76336962 </i>
    <i name="hartreedc">   -101.18120325 </i>
    <i name="XCdc">    119.98958065 </i>
    <i name="pawpsdc">    570.12066290 </i>
    <i name="pawaedc">   -580.47268006 </i>
    <i name="eentropy">      0.00000000 </i>
    <i name="bandstr">     46.64893711 </i>
    <i name="atom">   1177.01779097 </i>
    <i name="e_fr_energy">    -72.32843823 </i>
    <i name="e_wo_entrp">    -72.32843823 </i>
    <i name="e_0_energy">    -72.32843823 </i>
   </energy>
  </scstep>
  <structure>
   <crystal>
    <varray name="basis" >
     <v>       3.47461311      -0.00000000       0.00000000 </v>
     <v>      -0.00000000       3.47461311      -0.00000000 </v>
     <v>       0.00000000      -0.00000000       3.47461311 </v>
    </varray>
    <i name="volume">     41.94878273 </i>
    <varray name="rec_basis" >
     <v>       0.28780183       0.00000000      -0.00000000 </v>
     <v>       0.00000000       0.28780183       0.00000000 </v>
     <v>      -0.00000000       0.00000000       0.28780183 </v>
    </varray>
   </crystal>
   <varray name="positions" >
    <v>       0.75669600       0.75669600       0.75669600 </v>
    <v>       0.00669500       0.50669600       0.00669500 </v>
    <v>       0.50669600       0.50669600       0.50669600 </v>
    <v>       0.00669500       0.00669500       0.50669600 </v>
    <v>       0.50669600       0.00669500       0.00669500 </v>
    <v>       0.75669600       0.25669600       0.25669600 </v>
    <v>       0.25669600       0.25669600       0.75669600 </v>
    <v>       0.25669600       0.75669600       0.25669600 </v>
   </varray>
  </structure>
  <varray name="forces" >
   <v>       0.00000000      -0.00000000       0.00000000 </v>
   <v>      -0.00000000       0.00000000       0.00000000 </v>
   <v>       0.00000000       0.00000000       0.00000000 </v>
   <v>      -0.00000000       0.00000000       0.00000000 </v>
   <v>       0.00000000      -0.00000000       0.00000000 </v>
   <v>       0.00000000       0.00000000      -0.00000000 </v>
   <v>      -0.00000000       0.00000000      -0.00000000 </v>
   <v>       0.00000000      -0.00000000      -0.00000000 </v>
  </varray>
  <varray name="stress" >
   <v>     393.02141476       0.00000000       0.00000000 </v>
   <v>      -0.00000000     393.02141476       0.00000000 </v>
   <v>       0.00000000       0.00000000     393.02141476 </v>
  </varray>
  <energy>
   <i name="e_fr_energy">    -52.69166866 </i>
   <i name="e_wo_entrp">    -52.69166866 </i>
   <i name="e_0_energy">      0.00000000 </i>
  </energy>
  <time name="totalsc">    4.00    4.01</time>
 </calculation>
 <calculation>
  <scstep>
   <time name="dav">    0.61    0.61</time>
   <time name="total">    0.66    0.66</time>
   <energy>
    <i name="alphaZ">    130.51127201 </i>
    <i name="ewald">  -1452.12993961 </i>
    <i name="hartreedc">   -102.83476418 </i>
    <i name="XCdc">    121.85160410 </i>
    <i name="pawpsdc">    570.09192161 </i>
    <i name="pawaedc">   -580.44363710 </i>
    <i name="eentropy">      0.00000000 </i>
    <i name="bandstr">     64.25238643 </i>
    <i name="atom">   1177.01779097 </i>
    <i name="e_fr_energy">    -71.68336577 </i>
    <i name="e_wo_entrp">    -71.68336577 </i>
    <i name="e_0_energy">    -71.68336577 </i>
   </energy>
  </scstep>
  <scstep>
   <time name="dav">    0.66    0.66</time>
   <time name="total">    0.71    0.71</time>
   <energy>
    <i name="e_fr_energy">    -71.65868477 </i>
    <i name="e_wo_entrp">    -71.65868477 </i>
    <i name="e_0_energy">    -71.65868477 </i>
   </energy>
  </scstep>
  <scstep>
   <time name="dav">    0.61    0.61</time>
   <time name="total">    0.66    0.66</time>
   <energy>
    <i name="e_fr_energy">    -71.64741476 </i>
    <i name="e_wo_entrp">    -71.64741476 </i>
    <i name="e_0_energy">    -71.64741476 </i>
   </energy>
  </scstep>
  <scstep>
   <time name="dav">    0.66    0.66</time>
   <time name="total">    0.71    0.71</time>
   <energy>
    <i name="e_fr_energy">    -71.64736991 </i>
    <i name="e_wo_entrp">    -71.64736991 </i>
    <i name="e_0_energy">    -71.64736991 </i>
   </energy>
  </scstep>
  <scstep>
   <time name="dav">    0.64    0.64</time>
   <time name="total">    0.70    0.70</time>
   <energy>
    <i name="e_fr_energy">    -71.64736122 </i>
    <i name="e_wo_entrp">    -71.64736122 </i>
    <i name="e_0_energy">    -71.64736122 </i>
   </energy>
  </scstep>
  <scstep>
   <time name="dav">    0.44    0.44</time>
   <time name="total">    0.46    0.46</time>
   <energy>
    <i name="alphaZ">    130.51127201 </i>
    <i name="ewald">  -1452.12993961 </i>
    <i name="hartreedc">    -98.61529681 </i>
    <i name="XCdc">    121.46057528 </i>
    <i name="pawpsdc">    599.38027071 </i>
    <i name="pawaedc">   -609.89583521 </i>
    <i name="eentropy">      0.00000000 </i>
    <i name="bandstr">     60.62380172 </i>
    <i name="atom">   1177.01779097 </i>
    <i name="e_fr_energy">    -71.64736095 </i>
    <i name="e_wo_entrp">    -71.64736095 </i>
    <i name="e_0_energy">    -71.64736095 </i>
   </energy>
  </scstep>
  <structure>
   <crystal>
    <varray name="basis" >
     <v>       3.41870228      -0.00000000       0.00000000 </v>
     <v>      -0.00000000       3.41870228      -0.00000000 </v>
     <v>       0.00000000      -0.00000000       3.41870228 </v>
    </varray>
    <i name="volume">     39.95616942 </i>
    <varray name="rec_basis" >
     <v>       0.29250865       0.00000000      -0.00000000 </v>
     <v>       0.00000000       0.29250865       0.00000000 </v>
     <v>      -0.00000000       0.00000000       0.29250865 </v>
    </varray>
   </crystal>
   <varray name="positions" >
    <v>       0.75669600       0.75669600       0.75669600 </v>
    <v>       0.00669500       0.50669600       0.00669500 </v>
    <v>       0.50669600       0.50669600       0.50669600 </v>
    <v>       0.00669500       0.00669500       0.50669600 </v>
    <v>       0.50669600       0.00669500       0.00669500 </v>
    <v>       0.75669600       0.25669600       0.25669600 </v>
    <v>       0.25669600       0.25669600       0.75669600 </v>
    <v>       0.25669600       0.75669600       0.25669600 </v>
   </varray>
  </structure>
  <varray name="forces" >
   <v>      -0.00000000       0.00000000      -0.00000000 </v>
   <v>       0.00000000       0.00000000      -0.00000000 </v>
   <v>       0.00000000       0.00000000      -0.00000000 </v>
   <v>       0.00000000       0.00000000      -0.00000000 </v>
   <v>       0.00000000      -0.00000000       0.00000000 </v>
   <v>      -0.00000000      -0.00000000       0.00000000 </v>
   <v>      -0.00000000      -0.00000000       0.00000000 </v>
   <v>      -0.00000000      -0.00000000       0.00000000 </v>
  </varray>
  <varray name="stress" >
   <v>     712.72892103       0.00000000      -0.00000000 </v>
   <v>      -0.00000000     712.72892103       0.00000000 </v>
   <v>      -0.00000000       0.00000000     712.72892103 </v>
  </varray>
  <energy>
   <i name="e_fr_energy">    -52.94335952 </i>
   <i name="e_wo_entrp">    -52.94335952 </i>
   <i name="e_0_energy">      0.00000000 </i>
  </energy>
  <time name="totalsc">    4.07    4.09</time>
 </calculation>
 <calculation>
  <scstep>
   <time name="dav">    0.61    0.61</time>
   <time name="total">    0.66    0.66</time>
   <energy>
    <i name="alphaZ">    131.22094749 </i>
    <i name="ewald">  -1454.75724455 </i>
    <i name="hartreedc">    -98.79373612 </i>
    <i name="XCdc">    121.66927165 </i>
    <i name="pawpsdc">    599.30208083 </i>
    <i name="pawaedc">   -609.81693682 </i>
    <i name="eentropy">      0.00000000 </i>
    <i name="bandstr">     62.60875453 </i>
    <i name="atom">   1177.01779097 </i>
    <i name="e_fr_energy">    -71.54907202 </i>
    <i name="e_wo_entrp">    -71.54907202 </i>
    <i name="e_0_energy">    -71.54907202 </i>
   </energy>
  </scstep>
  <scstep>
   <time name="dav">    0.67    0.67</time>
   <time name="total">    0.72    0.72</time>
   <energy>
    <i name="e_fr_energy">    -71.54877243 </i>
    <i name="e_wo_entrp">    -71.54877243 </i>
    <i name="e_0_energy">    -71.54877243 </i>
   </energy>
  </scstep>
  <scstep>
   <time name="dav">    0.61    0.61</time>
   <time name="total">    0.66    0.66</time>
   <energy>
    <i name="e_fr_energy">    -71.54863962 </i>
    <i name="e_wo_entrp">    -71.54863962 </i>
    <i name="e_0_energy">    -71.54863962 </i>
   </energy>
  </scstep>
  <scstep>
   <time name="dav">    0.61    0.61</time>
   <time name="total">    0.63    0.63</time>
   <energy>
    <i name="alphaZ">    131.22094749 </i>
    <i name="ewald">  -1454.75724455 </i>
    <i name="hartreedc">    -98.33232821 </i>
    <i name="XCdc">    121.62649294 </i>
    <i name="pawpsdc">    602.51600957 </i>
    <i name="pawaedc">   -613.04749881 </i>
    <i name="eentropy">      0.00000000 </i>
    <i name="bandstr">     62.20719064 </i>
    <i name="atom">   1177.01779097 </i>
    <i name="e_fr_energy">    -71.54863994 </i>
    <i name="e_wo_entrp">    -71.54863994 </i>
    <i name="e_0_energy">    -71.54863994 </i>
   </energy>
  </scstep>
  <structure>
   <crystal>
    <varray name="basis" >
     <v>       3.41252808      -0.00000000       0.00000000 </v>
     <v>      -0.00000000       3.41252808      -0.00000000 </v>
     <v>       0.00000000      -0.00000000       3.41252808 </v>
    </varray>
    <i name="volume">     39.74007653 </i>
    <varray name="rec_basis" >
     <v>       0.29303788       0.00000000      -0.00000000 </v>
     <v>       0.00000000       0.29303788       0.00000000 </v>
     <v>      -0.00000000       0.00000000       0.29303788 </v>
    </varray>
   </crystal>
   <varray name="positions" >
    <v>       0.75669600       0.75669600       0.75669600 </v>
    <v>       0.00669500       0.50669600       0.00669500 </v>
    <v>       0.50669600       0.50669600       0.50669600 </v>
    <v>       0.00669500       0.00669500       0.50669600 </v>
    <v>       0.50669600       0.00669500       0.00669500 </v>
    <v>       0.75669600       0.25669600       0.25669600 </v>
    <v>       0.25669600       0.25669600       0.75669600 </v>
    <v>       0.25669600       0.75669600       0.25669600 </v>
   </varray>
  </structure>
  <varray name="forces" >
   <v>      -0.00000000      -0.00000000       0.00000000 </v>
   <v>       0.00000000       0.00000000      -0.00000000 </v>
   <v>      -0.00000000      -0.00000000       0.00000000 </v>
   <v>       0.00000000       0.00000000       0.00000000 </v>
   <v>       0.00000000       0.00000000      -0.00000000 </v>
   <v>      -0.00000000       0.00000000       0.00000000 </v>
   <v>       0.00000000       0.00000000      -0.00000000 </v>
   <v>      -0.00000000      -0.00000000       0.00000000 </v>
  </varray>
  <varray name="stress" >
   <v>     751.45477972      -0.00000000       0.00000000 </v>
   <v>      -0.00000000     751.45477972      -0.00000000 </v>
   <v>       0.00000000      -0.00000000     751.45477972 </v>
  </varray>
  <energy>
   <i name="e_fr_energy">    -52.94579440 </i>
   <i name="e_wo_entrp">    -52.94579440 </i>
   <i name="e_0_energy">      0.00000000 </i>
  </energy>
  <time name="totalsc">    2.82    2.83</time>
  <eigenvalues>
   <array>
    <dimension dim="1">band</dimension>
    <dimension dim="2">kpoint</dimension>
    <dimension dim="3">spin</dimension>
    <field>eigene</field>
    <field>occ</field>
    <set>
     <set comment="spin 1">
      <set comment="kpoint 1">
       <r>  -11.5664    1.0000 </r>
       <r>   -1.9834    1.0000 </r>
       <r>   -1.9833    1.0000 </r>
       <r>   -1.9833    1.0000 </r>
       <r>   -1.9833    1.0000 </r>
       <r>   -1.9832    1.0000 </r>
       <r>   -1.9832    1.0000 </r>
       <r>    4.6337    1.0000 </r>
       <r>    4.6337    1.0000 </r>
       <r>    4.6337    1.0000 </r>
       <r>    4.6338    1.0000 </r>
       <r>    4.6338    1.0000 </r>
       <r>    4.6338    1.0000 </r>
       <r>   11.7862    1.0000 </r>
       <r>   11.7862    1.0000 </r>
       <r>   11.7863    1.0000 </r>
       <r>   16.8094    0.0000 </r>
       <r>   16.8094    0.0000 </r>
       <r>   16.8094    0.0000 </r>
       <r>   16.8094    0.0000 </r>
       <r>   16.8094    0.0000 </r>
       <r>   16.8095    0.0000 </r>
       <r>   17.7431    0.0000 </r>
       <r>   17.7432    0.0000 </r>
       <r>   17.7432    0.0000 </r>
       <r>   28.2729    0.0000 </r>
       <r>   30.7672    0.0000 </r>
       <r>   30.7672    0.0000 </r>
      </set>
      <set comment="kpoint 2">
       <r>  -11.4087    1.0000 </r>
       <r>   -4.1096    1.0000 </r>
       <r>   -1.8723    1.0000 </r>
       <r>   -1.8723    1.0000 </r>
       <r>   -1.8722    1.0000 </r>
       <r>   -1.8722    1.0000 </r>
       <r>    0.2957    1.0000 </r>
       <r>    4.2834    1.0000 </r>
       <r>    4.2834    1.0000 </r>
       <r>    4.2834    1.0000 </r>
       <r>    4.2834    1.0000 </r>
       <r>    4.7900    1.0000 </r>
       <r>    4.7901    1.0000 </r>
       <r>   11.1353    1.0000 </r>
       <r>   11.1354    1.0000 </r>
       <r>   11.4374    1.0000 </r>
       <r>   16.3612    0.0000 </r>
       <r>   17.4494    0.0000 </r>
       <r>   17.4494    0.0000 </r>
       <r>   17.4494    0.0000 </r>
       <r>   17.4495    0.0000 </r>
       <r>   17.6134    0.0000 </r>
       <r>   17.6354    0.0000 </r>
       <r>   18.5430    0.0000 </r>
       <r>   18.5431    0.0000 </r>
       <r>   28.2609    0.0000 </r>
       <r>   30.1903    0.0000 </r>
       <r>   30.1904    0.0000 </r>
      </set>
      <set comment="kpoint 3">
       <r>  -10.9369    1.0000 </r>
       <r>   -6.0229    1.0000 </r>
       <r>   -1.5640    1.0000 </r>
       <r>   -1.5640    1.0000 </r>
       <r>   -1.5640    1.0000 </r>
       <r>   -1.5639    1.0000 </r>
       <r>    2.6425    1.0000 </r>
       <r>    3.4639    1.0000 </r>
       <r>    3.4639    1.0000 </r>
       <r>    3.4640    1.0000 </r>
       <r>    3.4640    1.0000 </r>
       <r>    5.2575    1.0000 </r>
       <r>    5.2575    1.0000 </r>
       <r>    9.7856    1.0000 </r>
       <r>    9.7856    1.0000 </r>
       <r>   10.4495    1.0000 </r>
       <r>   16.2105    0.0000 </r>
       <r>   17.3286    0.0000 </r>
       <r>   18.8477    0.0000 </r>
       <r>   19.1368    0.0000 </r>
       <r>   19.1368    0.0000 </r>
       <r>   19.1368    0.0000 </r>
       <r>   19.1369    0.0000 </r>
       <r>   20.3197    0.0000 </r>
       <r>   20.3197    0.0000 </r>
       <r>   27.5579    0.0000 </r>
       <r>   28.7352    0.0000 </r>
       <r>   28.7352    0.0000 </r>
      </set>
      <set comment="kpoint 4">
       <r>  -10.1540    1.0000 </r>
       <r>   -7.6837    1.0000 </r>
       <r>   -1.1656    1.0000 </r>
       <r>   -1.1656    1.0000 </r>
       <r>   -1.1656    1.0000 </r>
       <r>   -1.1655    1.0000 </r>
       <r>    2.6221    1.0000 </r>
       <r>    2.6221    1.0000 </r>
       <r>    2.6221    1.0000 </r>
       <r>    2.6221    1.0000 </r>
       <r>    4.9479    1.0000 </r>
       <r>    6.0254    1.0000 </r>
       <r>    6.0254    1.0000 </r>
       <r>    8.3561    1.0000 </r>
       <r>    8.3562    1.0000 </r>
       <r>    8.9602    1.0000 </r>
       <r>   16.2999    0.0000 </r>
       <r>   16.9379    0.0000 </r>
       <r>   20.5780    0.0000 </r>
       <r>   21.3822    0.0000 </r>
       <r>   21.3822    0.0000 </r>
       <r>   21.3822    0.0000 </r>
       <r>   21.3823    0.0000 </r>
       <r>   22.4442    0.0000 </r>
       <r>   22.4442    0.0000 </r>
       <r>   25.3969    0.0000 </r>
       <r>   26.7954    0.0000 </r>
       <r>   26.7955    0.0000 </r>
      </set>
      <set comment="kpoint 5">
       <r>   -9.0662    1.0000 </r>
       <r>   -9.0661    1.0000 </r>
       <r>   -0.9524    1.0000 </r>
       <r>   -0.9524    1.0000 </r>
       <r>   -0.9524    1.0000 </r>
       <r>   -0.9523    1.0000 </r>
       <r>    2.2408    1.0000 </r>
       <r>    2.2408    1.0000 </r>
       <r>    2.2409    1.0000 </r>
       <r>    2.2409    1.0000 </r>
       <r>    7.0710    1.0000 </r>
       <r>    7.0711    1.0000 </r>
       <r>    7.0712    1.0000 </r>
       <r>    7.0712    1.0000 </r>
       <r>    7.0898    1.0000 </r>
       <r>    7.0898    1.0000 </r>
       <r>   16.5637    0.0000 </r>
       <r>   16.5638    0.0000 </r>
       <r>   22.8174    0.0000 </r>
       <r>   22.8174    0.0000 </r>
       <r>   23.0094    0.0000 </r>
       <r>   23.0094    0.0000 </r>
       <r>   23.0095    0.0000 </r>
       <r>   23.0095    0.0000 </r>
       <r>   24.6405    0.0000 </r>
       <r>   24.6406    0.0000 </r>
       <r>   24.6406    0.0000 </r>
       <r>   24.6406    0.0000 </r>
      </set>
      <set comment="kpoint 6">
       <r>  -11.2513    1.0000 </r>
       <r>   -3.9759    1.0000 </r>
       <r>   -3.9759    1.0000 </r>
       <r>   -1.8358    1.0000 </r>
       <r>   -1.7061    1.0000 </r>
       <r>    0.3543    1.0000 </r>
       <r>    0.3543    1.0000 </r>
       <r>    3.1810    1.0000 </r>
       <r>    4.4050    1.0000 </r>
       <r>    4.4050    1.0000 </r>
       <r>    4.5054    1.0000 </r>
       <r>    4.5054    1.0000 </r>
       <r>    4.9044    1.0000 </r>
       <r>   10.2173    1.0000 </r>
       <r>   10.5369    1.0000 </r>
       <r>   11.5876    1.0000 </r>
       <r>   17.0210    0.0000 </r>
       <r>   17.0210    0.0000 </r>
       <r>   17.0558    0.0000 </r>
       <r>   18.0758    0.0000 </r>
       <r>   18.2262    0.0000 </r>
       <r>   18.2262    0.0000 </r>
       <r>   18.7479    0.0000 </r>
       <r>   18.9287    0.0000 </r>
       <r>   19.0706    0.0000 </r>
       <r>   28.3044    0.0000 </r>
       <r>   29.6071    0.0000 </r>
       <r>   29.6072    0.0000 </r>
      </set>
      <set comment="kpoint 7">
       <r>  -10.7800    1.0000 </r>
       <r>   -5.8783    1.0000 </r>
       <r>   -3.5847    1.0000 </r>
       <r>   -1.6973    1.0000 </r>
       <r>   -1.3214    1.0000 </r>
       <r>    0.4585    1.0000 </r>
       <r>    2.0471    1.0000 </r>
       <r>    2.5589    1.0000 </r>
       <r>    3.4884    1.0000 </r>
       <r>    3.9005    1.0000 </r>
       <r>    4.8263    1.0000 </r>
       <r>    4.8482    1.0000 </r>
       <r>    5.1273    1.0000 </r>
       <r>    8.8253    1.0000 </r>
       <r>    9.2549    1.0000 </r>
       <r>   10.9536    1.0000 </r>
       <r>   16.8818    0.0000 </r>
       <r>   17.9233    0.0000 </r>
       <r>   17.9648    0.0000 </r>
       <r>   18.7542    0.0000 </r>
       <r>   19.4188    0.0000 </r>
       <r>   19.8324    0.0000 </r>
       <r>   20.3092    0.0000 </r>
       <r>   20.4254    0.0000 </r>
       <r>   21.0963    0.0000 </r>
       <r>   27.7803    0.0000 </r>
       <r>   28.0225    0.0000 </r>
       <r>   28.0732    0.0000 </r>
      </set>
      <set comment="kpoint 8">
       <r>   -9.9983    1.0000 </r>
       <r>   -7.5332    1.0000 </r>
       <r>   -2.9764    1.0000 </r>
       <r>   -1.7490    1.0000 </r>
       <r>   -0.7519    1.0000 </r>
       <r>    0.3671    1.0000 </r>
       <r>    1.4039    1.0000 </r>
       <r>    2.4490    1.0000 </r>
       <r>    3.5159    1.0000 </r>
       <r>    4.2862    1.0000 </r>
       <r>    4.4713    1.0000 </r>
       <r>    5.5944    1.0000 </r>
       <r>    6.2939    1.0000 </r>
       <r>    7.3755    1.0000 </r>
       <r>    7.8681    1.0000 </r>
       <r>    9.6467    1.0000 </r>
       <r>   16.9757    0.0000 </r>
       <r>   17.5999    0.0000 </r>
       <r>   19.7469    0.0000 </r>
       <r>   21.0900    0.0000 </r>
       <r>   21.1059    0.0000 </r>
       <r>   21.7903    0.0000 </r>
       <r>   22.2123    0.0000 </r>
       <r>   22.4156    0.0000 </r>
       <r>   23.4896    0.0000 </r>
       <r>   25.7859    0.0000 </r>
       <r>   26.0334    0.0000 </r>
       <r>   26.2086    0.0000 </r>
      </set>
      <set comment="kpoint 9">
       <r>   -8.9125    1.0000 </r>
       <r>   -8.9124    1.0000 </r>
       <r>   -2.2658    1.0000 </r>
       <r>   -2.2657    1.0000 </r>
       <r>   -0.1073    1.0000 </r>
       <r>   -0.1073    1.0000 </r>
       <r>    1.6258    1.0000 </r>
       <r>    1.6258    1.0000 </r>
       <r>    3.7121    1.0000 </r>
       <r>    3.7121    1.0000 </r>
       <r>    5.9715    1.0000 </r>
       <r>    5.9715    1.0000 </r>
       <r>    6.6161    1.0000 </r>
       <r>    6.6161    1.0000 </r>
       <r>    7.9666    1.0000 </r>
       <r>    7.9667    1.0000 </r>
       <r>   17.2375    0.0000 </r>
       <r>   17.2376    0.0000 </r>
       <r>   21.8102    0.0000 </r>
       <r>   21.8102    0.0000 </r>
       <r>   23.2031    0.0000 </r>
       <r>   23.2032    0.0000 </r>
       <r>   23.5606    0.0000 </r>
       <r>   23.5606    0.0000 </r>
       <r>   24.2775    0.0000 </r>
       <r>   24.2775    0.0000 </r>
       <r>   24.6435    0.0000 </r>
       <r>   24.6435    0.0000 </r>
      </set>
      <set comment="kpoint 10">
       <r>  -10.3106    1.0000 </r>
       <r>   -5.4493    1.0000 </r>
       <r>   -5.4492    1.0000 </r>
       <r>   -2.0152    1.0000 </r>
       <r>   -0.8781    1.0000 </r>
       <r>    1.1149    1.0000 </r>
       <r>    2.1903    1.0000 </r>
       <r>    2.1903    1.0000 </r>
       <r>    3.8742    1.0000 </r>
       <r>    3.8742    1.0000 </r>
       <r>    4.9939    1.0000 </r>
       <r>    4.9940    1.0000 </r>
       <r>    5.6907    1.0000 </r>
       <r>    7.4371    1.0000 </r>
       <r>    8.0707    1.0000 </r>
       <r>   10.9397    1.0000 </r>
       <r>   17.7898    0.0000 </r>
       <r>   18.6279    0.0000 </r>
       <r>   18.6279    0.0000 </r>
       <r>   19.0504    0.0000 </r>
       <r>   20.6901    0.0000 </r>
       <r>   20.8536    0.0000 </r>
       <r>   20.8808    0.0000 </r>
       <r>   20.8809    0.0000 </r>
       <r>   23.5056    0.0000 </r>
       <r>   26.4350    0.0000 </r>
       <r>   26.4351    0.0000 </r>
       <r>   27.9400    0.0000 </r>
      </set>
      <set comment="kpoint 11">
       <r>   -9.5325    1.0000 </r>
       <r>   -7.0847    1.0000 </r>
       <r>   -4.7539    1.0000 </r>
       <r>   -2.8205    1.0000 </r>
       <r>   -0.2272    1.0000 </r>
       <r>    1.0927    1.0000 </r>
       <r>    1.4645    1.0000 </r>
       <r>    2.7475    1.0000 </r>
       <r>    3.5181    1.0000 </r>
       <r>    4.5753    1.0000 </r>
       <r>    5.1697    1.0000 </r>
       <r>    5.8560    1.0000 </r>
       <r>    6.0420    1.0000 </r>
       <r>    6.7140    1.0000 </r>
       <r>    6.7537    1.0000 </r>
       <r>   10.0765    1.0000 </r>
       <r>   18.7084    0.0000 </r>
       <r>   18.8445    0.0000 </r>
       <r>   19.1650    0.0000 </r>
       <r>   20.9908    0.0000 </r>
       <r>   21.7086    0.0000 </r>
       <r>   22.0674    0.0000 </r>
       <r>   22.2467    0.0000 </r>
       <r>   22.4173    0.0000 </r>
       <r>   24.9486    0.0000 </r>
       <r>   25.1761    0.0000 </r>
       <r>   25.6619    0.0000 </r>
       <r>   26.5420    0.0000 </r>
      </set>
      <set comment="kpoint 12">
       <r>   -8.4531    1.0000 </r>
       <r>   -8.4530    1.0000 </r>
       <r>   -3.8374    1.0000 </r>
       <r>   -3.8373    1.0000 </r>
       <r>    0.5893    1.0000 </r>
       <r>    0.5893    1.0000 </r>
       <r>    1.7472    1.0000 </r>
       <r>    1.7473    1.0000 </r>
       <r>    4.7398    1.0000 </r>
       <r>    4.7398    1.0000 </r>
       <r>    5.5540    1.0000 </r>
       <r>    5.5541    1.0000 </r>
       <r>    5.5570    1.0000 </r>
       <r>    5.5570    1.0000 </r>
       <r>    8.5584    1.0000 </r>
       <r>    8.5584    1.0000 </r>
       <r>   18.9234    0.0000 </r>
       <r>   18.9235    0.0000 </r>
       <r>   20.6861    0.0000 </r>
       <r>   20.6861    0.0000 </r>
       <r>   22.7389    0.0000 </r>
       <r>   22.7390    0.0000 </r>
       <r>   23.5790    0.0000 </r>
       <r>   23.5791    0.0000 </r>
       <r>   24.6568    0.0000 </r>
       <r>   24.6568    0.0000 </r>
       <r>   24.8958    0.0000 </r>
       <r>   24.8959    0.0000 </r>
      </set>
      <set comment="kpoint 13">
       <r>   -8.7615    1.0000 </r>
       <r>   -6.3481    1.0000 </r>
       <r>   -6.3480    1.0000 </r>
       <r>   -4.1266    1.0000 </r>
       <r>    0.4887    1.0000 </r>
       <r>    1.5003    1.0000 </r>
       <r>    2.4363    1.0000 </r>
       <r>    2.4363    1.0000 </r>
       <r>    3.3981    1.0000 </r>
       <r>    3.3981    1.0000 </r>
       <r>    4.7195    1.0000 </r>
       <r>    5.4925    1.0000 </r>
       <r>    6.9009    1.0000 </r>
       <r>    7.0852    1.0000 </r>
       <r>    7.0853    1.0000 </r>
       <r>    9.8085    1.0000 </r>
       <r>   18.9575    0.0000 </r>
       <r>   20.6324    0.0000 </r>
       <r>   21.0035    0.0000 </r>
       <r>   21.0035    0.0000 </r>
       <r>   21.3322    0.0000 </r>
       <r>   21.7975    0.0000 </r>
       <r>   21.7975    0.0000 </r>
       <r>   22.9693    0.0000 </r>
       <r>   25.2425    0.0000 </r>
       <r>   25.4962    0.0000 </r>
       <r>   25.4962    0.0000 </r>
       <r>   27.0524    0.0000 </r>
      </set>
      <set comment="kpoint 14">
       <r>   -7.6945    1.0000 </r>
       <r>   -7.6944    1.0000 </r>
       <r>   -5.3454    1.0000 </r>
       <r>   -5.3453    1.0000 </r>
       <r>    1.3931    1.0000 </r>
       <r>    1.3931    1.0000 </r>
       <r>    2.3221    1.0000 </r>
       <r>    2.3221    1.0000 </r>
       <r>    3.5057    1.0000 </r>
       <r>    3.5057    1.0000 </r>
       <r>    4.3354    1.0000 </r>
       <r>    4.3355    1.0000 </r>
       <r>    7.2426    1.0000 </r>
       <r>    7.2427    1.0000 </r>
       <r>    8.7539    1.0000 </r>
       <r>    8.7540    1.0000 </r>
       <r>   20.1127    0.0000 </r>
       <r>   20.1127    0.0000 </r>
       <r>   21.0245    0.0000 </r>
       <r>   21.0246    0.0000 </r>
       <r>   21.3820    0.0000 </r>
       <r>   21.3821    0.0000 </r>
       <r>   23.4042    0.0000 </r>
       <r>   23.4043    0.0000 </r>
       <r>   24.8082    0.0000 </r>
       <r>   24.8082    0.0000 </r>
       <r>   26.6277    0.0000 </r>
       <r>   26.6277    0.0000 </r>
      </set>
      <set comment="kpoint 15">
       <r>   -6.6499    1.0000 </r>
       <r>   -6.6498    1.0000 </r>
       <r>   -6.6498    1.0000 </r>
       <r>   -6.6497    1.0000 </r>
       <r>    2.3701    1.0000 </r>
       <r>    2.3701    1.0000 </r>
       <r>    2.3701    1.0000 </r>
       <r>    2.3701    1.0000 </r>
       <r>    3.2153    1.0000 </r>
       <r>    3.2153    1.0000 </r>
       <r>    3.2153    1.0000 </r>
       <r>    3.2154    1.0000 </r>
       <r>    8.3639    1.0000 </r>
       <r>    8.3639    1.0000 </r>
       <r>    8.3640    1.0000 </r>
       <r>    8.3641    1.0000 </r>
       <r>   20.3576    0.0000 </r>
       <r>   20.3577    0.0000 </r>
       <r>   20.3577    0.0000 </r>
       <r>   20.3578    0.0000 </r>
       <r>   22.7486    0.0000 </r>
       <r>   22.7487    0.0000 </r>
       <r>   22.7487    0.0000 </r>
       <r>   22.7487    0.0000 </r>
       <r>   25.6065    0.0000 </r>
       <r>   25.6066    0.0000 </r>
       <r>   25.6066    0.0000 </r>
       <r>   25.6067    0.0000 </r>
      </set>
      <set comment="kpoint 16">
       <r>  -11.0941    1.0000 </r>
       <r>   -3.8457    1.0000 </r>
       <r>   -3.8456    1.0000 </r>
       <r>   -3.8456    1.0000 </r>
       <r>    0.3687    1.0000 </r>
       <r>    0.3687    1.0000 </r>
       <r>    0.3687    1.0000 </r>
       <r>    3.4270    1.0000 </r>
       <r>    3.4270    1.0000 </r>
       <r>    3.4270    1.0000 </r>
       <r>    5.0567    1.0000 </r>
       <r>    5.0567    1.0000 </r>
       <r>    5.0567    1.0000 </r>
       <r>    9.1008    1.0000 </r>
       <r>   11.0323    1.0000 </r>
       <r>   11.0323    1.0000 </r>
       <r>   17.0630    0.0000 </r>
       <r>   17.0630    0.0000 </r>
       <r>   17.0630    0.0000 </r>
       <r>   18.7359    0.0000 </r>
       <r>   18.7359    0.0000 </r>
       <r>   19.2620    0.0000 </r>
       <r>   19.2620    0.0000 </r>
       <r>   19.2621    0.0000 </r>
       <r>   19.3570    0.0000 </r>
       <r>   28.3878    0.0000 </r>
       <r>   29.3420    0.0000 </r>
       <r>   29.3420    0.0000 </r>
      </set>
      <set comment="kpoint 17">
       <r>  -10.6234    1.0000 </r>
       <r>   -5.7348    1.0000 </r>
       <r>   -3.4709    1.0000 </r>
       <r>   -3.4708    1.0000 </r>
       <r>    0.2441    1.0000 </r>
       <r>    0.2441    1.0000 </r>
       <r>    2.2748    1.0000 </r>
       <r>    2.5417    1.0000 </r>
       <r>    2.5417    1.0000 </r>
       <r>    4.3117    1.0000 </r>
       <r>    4.9950    1.0000 </r>
       <r>    4.9950    1.0000 </r>
       <r>    5.5113    1.0000 </r>
       <r>    7.6259    1.0000 </r>
       <r>    9.8203    1.0000 </r>
       <r>   10.7322    1.0000 </r>
       <r>   17.1442    0.0000 </r>
       <r>   18.0005    0.0000 </r>
       <r>   18.0006    0.0000 </r>
       <r>   18.4774    0.0000 </r>
       <r>   20.2112    0.0000 </r>
       <r>   20.2690    0.0000 </r>
[...]
        <r>  0.0000  0.0020  0.0081  0.0020  0.0000  0.0000  0.0000  0.0000  0.0000 </r>
        <r>  0.2087  0.0020  0.0000  0.0020  0.0000  0.0000  0.0000  0.0000  0.0000 </r>
        <r>  0.0517  0.0081  0.0020  0.0000  0.0000  0.0000  0.0000  0.0000  0.0000 </r>
        <r>  0.0517  0.0081  0.0020  0.0000  0.0000  0.0000  0.0000  0.0000  0.0000 </r>
        <r>  0.2087  0.0020  0.0000  0.0020  0.0000  0.0000  0.0000  0.0000  0.0000 </r>
        <r>  0.0526  0.0000  0.0020  0.0081  0.0000  0.0000  0.0000  0.0000  0.0000 </r>
       </set>
       <set comment="band 5">
        <r>  0.0000  0.0116  0.0461  0.0114  0.0000  0.0000  0.0000  0.0000  0.0000 </r>
        <r>  0.0130  0.0000  0.0114  0.0461  0.0000  0.0000  0.0000  0.0000  0.0000 </r>
        <r>  0.0000  0.0116  0.0461  0.0114  0.0000  0.0000  0.0000  0.0000  0.0000 </r>
        <r>  0.0515  0.0114  0.0000  0.0116  0.0000  0.0000  0.0000  0.0000  0.0000 </r>
        <r>  0.0127  0.0461  0.0116  0.0000  0.0000  0.0000  0.0000  0.0000  0.0000 </r>
        <r>  0.0127  0.0461  0.0116  0.0000  0.0000  0.0000  0.0000  0.0000  0.0000 </r>
        <r>  0.0515  0.0114  0.0000  0.0116  0.0000  0.0000  0.0000  0.0000  0.0000 </r>
        <r>  0.0130  0.0000  0.0114  0.0461  0.0000  0.0000  0.0000  0.0000  0.0000 </r>
       </set>
       <set comment="band 6">
        <r>  0.0000  0.0345  0.0000  0.0347  0.0000  0.0000  0.0000  0.0000  0.0000 </r>
        <r>  0.0385  0.0000  0.0347  0.0000  0.0000  0.0000  0.0000  0.0000  0.0000 </r>
        <r>  0.0000  0.0345  0.0000  0.0347  0.0000  0.0000  0.0000  0.0000  0.0000 </r>
        <r>  0.0000  0.0347  0.0000  0.0345  0.0000  0.0000  0.0000  0.0000  0.0000 </r>
        <r>  0.0388  0.0000  0.0345  0.0000  0.0000  0.0000  0.0000  0.0000  0.0000 </r>
        <r>  0.0388  0.0000  0.0345  0.0000  0.0000  0.0000  0.0000  0.0000  0.0000 </r>
        <r>  0.0000  0.0347  0.0000  0.0345  0.0000  0.0000  0.0000  0.0000  0.0000 </r>
        <r>  0.0385  0.0000  0.0347  0.0000  0.0000  0.0000  0.0000  0.0000  0.0000 </r>
       </set>
       <set comment="band 7">
        <r>  0.0043  0.0218  0.0218  0.0218  0.0000  0.0000  0.0000  0.0000  0.0000 </r>
        <r>  0.0020  0.0637  0.0018  0.0018  0.0000  0.0000  0.0000  0.0000  0.0000 </r>
        <r>  0.0712  0.0018  0.0018  0.0018  0.0000  0.0000  0.0000  0.0000  0.0000 </r>
        <r>  0.0020  0.0018  0.0637  0.0018  0.0000  0.0000  0.0000  0.0000  0.0000 </r>
        <r>  0.0020  0.0018  0.0018  0.0637  0.0000  0.0000  0.0000  0.0000  0.0000 </r>
        <r>  0.0243  0.0218  0.0218  0.0039  0.0000  0.0000  0.0000  0.0000  0.0000 </r>
        <r>  0.0243  0.0218  0.0039  0.0218  0.0000  0.0000  0.0000  0.0000  0.0000 </r>
        <r>  0.0243  0.0039  0.0218  0.0218  0.0000  0.0000  0.0000  0.0000  0.0000 </r>
       </set>
       <set comment="band 8">
        <r>  0.0729  0.0013  0.0013  0.0013  0.0000  0.0000  0.0000  0.0000  0.0000 </r>
        <r>  0.0237  0.0054  0.0212  0.0212  0.0000  0.0000  0.0000  0.0000  0.0000 </r>
        <r>  0.0061  0.0212  0.0212  0.0212  0.0000  0.0000  0.0000  0.0000  0.0000 </r>
        <r>  0.0237  0.0212  0.0054  0.0212  0.0000  0.0000  0.0000  0.0000  0.0000 </r>
        <r>  0.0237  0.0212  0.0212  0.0054  0.0000  0.0000  0.0000  0.0000  0.0000 </r>
        <r>  0.0014  0.0013  0.0013  0.0653  0.0000  0.0000  0.0000  0.0000  0.0000 </r>
        <r>  0.0014  0.0013  0.0653  0.0013  0.0000  0.0000  0.0000  0.0000  0.0000 </r>
        <r>  0.0014  0.0653  0.0013  0.0013  0.0000  0.0000  0.0000  0.0000  0.0000 </r>
       </set>
       <set comment="band 9">
        <r>  0.0000  0.0102  0.1582  0.0880  0.0000  0.0000  0.0000  0.0000  0.0000 </r>
        <r>  0.0000  0.0069  0.0159  0.0000  0.0000  0.0000  0.0000  0.0000  0.0000 </r>
        <r>  0.0000  0.0009  0.0144  0.0080  0.0000  0.0000  0.0000  0.0000  0.0000 </r>
        <r>  0.0000  0.0466  0.1067  0.0641  0.0000  0.0000  0.0000  0.0000  0.0000 </r>
        <r>  0.0000  0.0161  0.0496  0.0593  0.0000  0.0000  0.0000  0.0000  0.0000 </r>
        <r>  0.0000  0.0391  0.0030  0.0013  0.0000  0.0000  0.0000  0.0000  0.0000 </r>
        <r>  0.0000  0.0211  0.0024  0.0021  0.0000  0.0000  0.0000  0.0000  0.0000 </r>
        <r>  0.0000  0.0002  0.0229  0.0401  0.0000  0.0000  0.0000  0.0000  0.0000 </r>
       </set>
       <set comment="band 10">
        <r>  0.0000  0.1607  0.0127  0.0830  0.0000  0.0000  0.0000  0.0000  0.0000 </r>
        <r>  0.0000  0.1083  0.0482  0.0641  0.0000  0.0000  0.0000  0.0000  0.0000 </r>
        <r>  0.0000  0.0146  0.0012  0.0076  0.0000  0.0000  0.0000  0.0000  0.0000 </r>
        <r>  0.0000  0.0176  0.0086  0.0000  0.0000  0.0000  0.0000  0.0000  0.0000 </r>
        <r>  0.0000  0.0480  0.0145  0.0559  0.0000  0.0000  0.0000  0.0000  0.0000 </r>
        <r>  0.0000  0.0037  0.0397  0.0013  0.0000  0.0000  0.0000  0.0000  0.0000 </r>
        <r>  0.0000  0.0217  0.0002  0.0406  0.0000  0.0000  0.0000  0.0000  0.0000 </r>
        <r>  0.0000  0.0024  0.0198  0.0027  0.0000  0.0000  0.0000  0.0000  0.0000 </r>
       </set>
       <set comment="band 11">
        <r>  0.0000  0.0864  0.0864  0.0864  0.0000  0.0000  0.0000  0.0000  0.0000 </r>
        <r>  0.0000  0.0000  0.0216  0.0216  0.0000  0.0000  0.0000  0.0000  0.0000 </r>
        <r>  0.0000  0.0864  0.0864  0.0864  0.0000  0.0000  0.0000  0.0000  0.0000 </r>
        <r>  0.0000  0.0216  0.0000  0.0216  0.0000  0.0000  0.0000  0.0000  0.0000 </r>
        <r>  0.0000  0.0216  0.0216  0.0000  0.0000  0.0000  0.0000  0.0000  0.0000 </r>
        <r>  0.0000  0.0216  0.0216  0.0000  0.0000  0.0000  0.0000  0.0000  0.0000 </r>
        <r>  0.0000  0.0216  0.0000  0.0216  0.0000  0.0000  0.0000  0.0000  0.0000 </r>
        <r>  0.0000  0.0000  0.0216  0.0216  0.0000  0.0000  0.0000  0.0000  0.0000 </r>
       </set>
       <set comment="band 12">
        <r>  0.0000  0.0000  0.0000  0.0000  0.0000  0.0000  0.0000  0.0000  0.0000 </r>
        <r>  0.0000  0.0000  0.0648  0.0648  0.0000  0.0000  0.0000  0.0000  0.0000 </r>
        <r>  0.0000  0.0000  0.0000  0.0000  0.0000  0.0000  0.0000  0.0000  0.0000 </r>
        <r>  0.0000  0.0648  0.0000  0.0648  0.0000  0.0000  0.0000  0.0000  0.0000 </r>
        <r>  0.0000  0.0648  0.0648  0.0000  0.0000  0.0000  0.0000  0.0000  0.0000 </r>
        <r>  0.0000  0.0648  0.0648  0.0000  0.0000  0.0000  0.0000  0.0000  0.0000 </r>
        <r>  0.0000  0.0648  0.0000  0.0648  0.0000  0.0000  0.0000  0.0000  0.0000 </r>
        <r>  0.0000  0.0000  0.0648  0.0648  0.0000  0.0000  0.0000  0.0000  0.0000 </r>
       </set>
       <set comment="band 13">
        <r>  0.0000  0.0001  0.0000  0.0001  0.0000  0.0000  0.0000  0.0000  0.0000 </r>
        <r>  0.0000  0.0219  0.0272  0.0015  0.0000  0.0000  0.0000  0.0000  0.0000 </r>
        <r>  0.0000  0.1022  0.0009  0.1226  0.0000  0.0000  0.0000  0.0000  0.0000 </r>
        <r>  0.0000  0.0344  0.0002  0.0301  0.0000  0.0000  0.0000  0.0000  0.0000 </r>
        <r>  0.0000  0.0001  0.0214  0.0262  0.0000  0.0000  0.0000  0.0000  0.0000 </r>
        <r>  0.0000  0.1038  0.0316  0.0402  0.0000  0.0000  0.0000  0.0000  0.0000 </r>
        <r>  0.0000  0.0211  0.0003  0.0357  0.0000  0.0000  0.0000  0.0000  0.0000 </r>
        <r>  0.0000  0.0335  0.0178  0.1045  0.0000  0.0000  0.0000  0.0000  0.0000 </r>
       </set>
       <set comment="band 14">
        <r>  0.0000  0.0001  0.0002  0.0000  0.0000  0.0000  0.0000  0.0000  0.0000 </r>
        <r>  0.0000  0.0103  0.0110  0.0367  0.0000  0.0000  0.0000  0.0000  0.0000 </r>
        <r>  0.0000  0.0483  0.1496  0.0279  0.0000  0.0000  0.0000  0.0000  0.0000 </r>
        <r>  0.0000  0.0038  0.0320  0.0081  0.0000  0.0000  0.0000  0.0000  0.0000 </r>
        <r>  0.0000  0.0381  0.0168  0.0060  0.0000  0.0000  0.0000  0.0000  0.0000 </r>
        <r>  0.0000  0.0010  0.0732  0.0091  0.0000  0.0000  0.0000  0.0000  0.0000 </r>
        <r>  0.0000  0.0837  0.0490  0.0691  0.0000  0.0000  0.0000  0.0000  0.0000 </r>
        <r>  0.0000  0.0158  0.0870  0.0004  0.0000  0.0000  0.0000  0.0000  0.0000 </r>
       </set>
       <set comment="band 15">
        <r>  0.0000  0.0006  0.0015  0.0002  0.0000  0.0000  0.0000  0.0000  0.0000 </r>
        <r>  0.0000  0.0406  0.0662  0.0001  0.0000  0.0000  0.0000  0.0000  0.0000 </r>
        <r>  0.0000  0.0024  0.0065  0.0010  0.0000  0.0000  0.0000  0.0000  0.0000 </r>
        <r>  0.0000  0.0509  0.1100  0.0341  0.0000  0.0000  0.0000  0.0000  0.0000 </r>
        <r>  0.0000  0.0053  0.0546  0.0169  0.0000  0.0000  0.0000  0.0000  0.0000 </r>
        <r>  0.0000  0.0000  0.0129  0.0314  0.0000  0.0000  0.0000  0.0000  0.0000 </r>
        <r>  0.0000  0.0233  0.2040  0.0189  0.0000  0.0000  0.0000  0.0000  0.0000 </r>
        <r>  0.0000  0.0754  0.0188  0.0015  0.0000  0.0000  0.0000  0.0000  0.0000 </r>
       </set>
       <set comment="band 16">
        <r>  0.0000  0.0010  0.0000  0.0013  0.0000  0.0000  0.0000  0.0000  0.0000 </r>
        <r>  0.0000  0.0710  0.0042  0.0703  0.0000  0.0000  0.0000  0.0000  0.0000 </r>
        <r>  0.0000  0.0042  0.0001  0.0056  0.0000  0.0000  0.0000  0.0000  0.0000 </r>
        <r>  0.0000  0.0195  0.0017  0.0363  0.0000  0.0000  0.0000  0.0000  0.0000 </r>
        <r>  0.0000  0.0651  0.0158  0.0948  0.0000  0.0000  0.0000  0.0000  0.0000 </r>
        <r>  0.0000  0.0251  0.0123  0.1758  0.0000  0.0000  0.0000  0.0000  0.0000 </r>
        <r>  0.0000  0.0018  0.0032  0.0063  0.0000  0.0000  0.0000  0.0000  0.0000 </r>
        <r>  0.0000  0.1318  0.0063  0.0236  0.0000  0.0000  0.0000  0.0000  0.0000 </r>
       </set>
       <set comment="band 17">
        <r>  0.0000  0.0038  0.0023  0.0119  0.0000  0.0000  0.0000  0.0000  0.0000 </r>
        <r>  0.0000  0.0095  0.0009  0.0608  0.0000  0.0000  0.0000  0.0000  0.0000 </r>
        <r>  0.0000  0.0026  0.0016  0.0080  0.0000  0.0000  0.0000  0.0000  0.0000 </r>
        <r>  0.0000  0.0042  0.0058  0.0547  0.0000  0.0000  0.0000  0.0000  0.0000 </r>
        <r>  0.0000  0.0431  0.0337  0.0299  0.0000  0.0000  0.0000  0.0000  0.0000 </r>
        <r>  0.0000  0.0091  0.0093  0.1380  0.0000  0.0000  0.0000  0.0000  0.0000 </r>
        <r>  0.0000  0.0024  0.0267  0.0013  0.0000  0.0000  0.0000  0.0000  0.0000 </r>
        <r>  0.0000  0.0440  0.0036  0.0023  0.0000  0.0000  0.0000  0.0000  0.0000 </r>
       </set>
       <set comment="band 18">
        <r>  0.0000  0.0082  0.0097  0.0001  0.0000  0.0000  0.0000  0.0000  0.0000 </r>
        <r>  0.0000  0.0206  0.0649  0.0050  0.0000  0.0000  0.0000  0.0000  0.0000 </r>
        <r>  0.0000  0.0055  0.0065  0.0001  0.0000  0.0000  0.0000  0.0000  0.0000 </r>
        <r>  0.0000  0.0616  0.0243  0.0111  0.0000  0.0000  0.0000  0.0000  0.0000 </r>
        <r>  0.0000  0.0227  0.0321  0.0002  0.0000  0.0000  0.0000  0.0000  0.0000 </r>
        <r>  0.0000  0.0002  0.0000  0.0011  0.0000  0.0000  0.0000  0.0000  0.0000 </r>
        <r>  0.0000  0.0070  0.1124  0.0081  0.0000  0.0000  0.0000  0.0000  0.0000 </r>
        <r>  0.0000  0.0951  0.0057  0.0070  0.0000  0.0000  0.0000  0.0000  0.0000 </r>
       </set>
       <set comment="band 19">
        <r>  0.0000  0.0566  0.0566  0.0566  0.0000  0.0000  0.0000  0.0000  0.0000 </r>
        <r>  0.0000  0.0000  0.0142  0.0142  0.0000  0.0000  0.0000  0.0000  0.0000 </r>
        <r>  0.0000  0.0566  0.0566  0.0566  0.0000  0.0000  0.0000  0.0000  0.0000 </r>
        <r>  0.0000  0.0142  0.0000  0.0142  0.0000  0.0000  0.0000  0.0000  0.0000 </r>
        <r>  0.0000  0.0142  0.0142  0.0000  0.0000  0.0000  0.0000  0.0000  0.0000 </r>
        <r>  0.0000  0.0142  0.0142  0.0000  0.0000  0.0000  0.0000  0.0000  0.0000 </r>
        <r>  0.0000  0.0142  0.0000  0.0142  0.0000  0.0000  0.0000  0.0000  0.0000 </r>
        <r>  0.0000  0.0000  0.0142  0.0142  0.0000  0.0000  0.0000  0.0000  0.0000 </r>
       </set>
       <set comment="band 20">
        <r>  0.0000  0.0162  0.0000  0.0166  0.0000  0.0000  0.0000  0.0000  0.0000 </r>
        <r>  0.0000  0.0723  0.0045  0.0027  0.0000  0.0000  0.0000  0.0000  0.0000 </r>
        <r>  0.0000  0.0330  0.0000  0.0339  0.0000  0.0000  0.0000  0.0000  0.0000 </r>
        <r>  0.0000  0.0137  0.0000  0.0136  0.0000  0.0000  0.0000  0.0000  0.0000 </r>
        <r>  0.0000  0.0025  0.0042  0.0743  0.0000  0.0000  0.0000  0.0000  0.0000 </r>
        <r>  0.0000  0.0670  0.0048  0.0016  0.0000  0.0000  0.0000  0.0000  0.0000 </r>
        <r>  0.0000  0.0367  0.0000  0.0384  0.0000  0.0000  0.0000  0.0000  0.0000 </r>
        <r>  0.0000  0.0016  0.0039  0.0679  0.0000  0.0000  0.0000  0.0000  0.0000 </r>
       </set>
       <set comment="band 21">
        <r>  0.0000  0.0057  0.0218  0.0052  0.0000  0.0000  0.0000  0.0000  0.0000 </r>
        <r>  0.0000  0.0255  0.0093  0.0110  0.0000  0.0000  0.0000  0.0000  0.0000 </r>
        <r>  0.0000  0.0116  0.0445  0.0107  0.0000  0.0000  0.0000  0.0000  0.0000 </r>
        <r>  0.0000  0.0001  0.0978  0.0001  0.0000  0.0000  0.0000  0.0000  0.0000 </r>
        <r>  0.0000  0.0113  0.0096  0.0235  0.0000  0.0000  0.0000  0.0000  0.0000 </r>
        <r>  0.0000  0.0059  0.0682  0.0005  0.0000  0.0000  0.0000  0.0000  0.0000 </r>
        <r>  0.0000  0.0362  0.0021  0.0345  0.0000  0.0000  0.0000  0.0000  0.0000 </r>
        <r>  0.0000  0.0006  0.0690  0.0050  0.0000  0.0000  0.0000  0.0000  0.0000 </r>
       </set>
       <set comment="band 22">
        <r>  0.0000  0.0596  0.0000  0.0595  0.0000  0.0000  0.0000  0.0000  0.0000 </r>
        <r>  0.0000  0.0315  0.0305  0.0186  0.0000  0.0000  0.0000  0.0000  0.0000 </r>
        <r>  0.0000  0.0455  0.0000  0.0454  0.0000  0.0000  0.0000  0.0000  0.0000 </r>
        <r>  0.0000  0.0015  0.0000  0.0015  0.0000  0.0000  0.0000  0.0000  0.0000 </r>
        <r>  0.0000  0.0185  0.0305  0.0314  0.0000  0.0000  0.0000  0.0000  0.0000 </r>
        <r>  0.0000  0.0110  0.0305  0.0214  0.0000  0.0000  0.0000  0.0000  0.0000 </r>
        <r>  0.0000  0.0048  0.0000  0.0048  0.0000  0.0000  0.0000  0.0000  0.0000 </r>
        <r>  0.0000  0.0215  0.0305  0.0111  0.0000  0.0000  0.0000  0.0000  0.0000 </r>
       </set>
       <set comment="band 23">
        <r>  0.0000  0.0198  0.0794  0.0199  0.0000  0.0000  0.0000  0.0000  0.0000 </r>
        <r>  0.0000  0.0104  0.0032  0.0151  0.0000  0.0000  0.0000  0.0000  0.0000 </r>
        <r>  0.0000  0.0151  0.0606  0.0152  0.0000  0.0000  0.0000  0.0000  0.0000 </r>
        <r>  0.0000  0.0322  0.0419  0.0322  0.0000  0.0000  0.0000  0.0000  0.0000 </r>
        <r>  0.0000  0.0152  0.0032  0.0105  0.0000  0.0000  0.0000  0.0000  0.0000 </r>
        <r>  0.0000  0.0199  0.0004  0.0072  0.0000  0.0000  0.0000  0.0000  0.0000 </r>
        <r>  0.0000  0.0261  0.0286  0.0261  0.0000  0.0000  0.0000  0.0000  0.0000 </r>
        <r>  0.0000  0.0071  0.0004  0.0198  0.0000  0.0000  0.0000  0.0000  0.0000 </r>
       </set>
       <set comment="band 24">
        <r>  0.0000  0.0000  0.0000  0.0000  0.0000  0.0000  0.0000  0.0000  0.0000 </r>
        <r>  0.0000  0.0000  0.0425  0.0425  0.0000  0.0000  0.0000  0.0000  0.0000 </r>
        <r>  0.0000  0.0000  0.0000  0.0000  0.0000  0.0000  0.0000  0.0000  0.0000 </r>
        <r>  0.0000  0.0425  0.0000  0.0425  0.0000  0.0000  0.0000  0.0000  0.0000 </r>
        <r>  0.0000  0.0425  0.0425  0.0000  0.0000  0.0000  0.0000  0.0000  0.0000 </r>
        <r>  0.0000  0.0425  0.0425  0.0000  0.0000  0.0000  0.0000  0.0000  0.0000 </r>
        <r>  0.0000  0.0425  0.0000  0.0425  0.0000  0.0000  0.0000  0.0000  0.0000 </r>
        <r>  0.0000  0.0000  0.0425  0.0425  0.0000  0.0000  0.0000  0.0000  0.0000 </r>
       </set>
       <set comment="band 25">
        <r>  0.2946  0.0000  0.0000  0.0000  0.0000  0.0000  0.0000  0.0000  0.0000 </r>
        <r>  0.0758  0.0007  0.0007  0.0007  0.0000  0.0000  0.0000  0.0000  0.0000 </r>
        <r>  0.0673  0.0007  0.0007  0.0007  0.0000  0.0000  0.0000  0.0000  0.0000 </r>
        <r>  0.0758  0.0007  0.0007  0.0007  0.0000  0.0000  0.0000  0.0000  0.0000 </r>
        <r>  0.0758  0.0007  0.0007  0.0007  0.0000  0.0000  0.0000  0.0000  0.0000 </r>
        <r>  0.0001  0.0000  0.0000  0.0029  0.0000  0.0000  0.0000  0.0000  0.0000 </r>
        <r>  0.0001  0.0000  0.0029  0.0000  0.0000  0.0000  0.0000  0.0000  0.0000 </r>
        <r>  0.0001  0.0029  0.0000  0.0000  0.0000  0.0000  0.0000  0.0000  0.0000 </r>
       </set>
       <set comment="band 26">
        <r>  0.0002  0.0010  0.0010  0.0010  0.0000  0.0000  0.0000  0.0000  0.0000 </r>
        <r>  0.0224  0.0022  0.0002  0.0002  0.0000  0.0000  0.0000  0.0000  0.0000 </r>
        <r>  0.2275  0.0002  0.0002  0.0002  0.0000  0.0000  0.0000  0.0000  0.0000 </r>
        <r>  0.0224  0.0002  0.0022  0.0002  0.0000  0.0000  0.0000  0.0000  0.0000 </r>
        <r>  0.0224  0.0002  0.0002  0.0022  0.0000  0.0000  0.0000  0.0000  0.0000 </r>
        <r>  0.0982  0.0010  0.0010  0.0000  0.0000  0.0000  0.0000  0.0000  0.0000 </r>
        <r>  0.0982  0.0010  0.0000  0.0010  0.0000  0.0000  0.0000  0.0000  0.0000 </r>
        <r>  0.0982  0.0000  0.0010  0.0010  0.0000  0.0000  0.0000  0.0000  0.0000 </r>
       </set>
       <set comment="band 27">
        <r>  0.0000  0.0006  0.0019  0.0004  0.0000  0.0000  0.0000  0.0000  0.0000 </r>
        <r>  0.0601  0.0000  0.0004  0.0019  0.0000  0.0000  0.0000  0.0000  0.0000 </r>
        <r>  0.0000  0.0006  0.0019  0.0004  0.0000  0.0000  0.0000  0.0000  0.0000 </r>
        <r>  0.1952  0.0004  0.0000  0.0006  0.0000  0.0000  0.0000  0.0000  0.0000 </r>
        <r>  0.0394  0.0019  0.0006  0.0000  0.0000  0.0000  0.0000  0.0000  0.0000 </r>
        <r>  0.0394  0.0019  0.0006  0.0000  0.0000  0.0000  0.0000  0.0000  0.0000 </r>
        <r>  0.1952  0.0004  0.0000  0.0006  0.0000  0.0000  0.0000  0.0000  0.0000 </r>
        <r>  0.0601  0.0000  0.0004  0.0019  0.0000  0.0000  0.0000  0.0000  0.0000 </r>
       </set>
       <set comment="band 28">
        <r>  0.0000  0.0013  0.0000  0.0015  0.0000  0.0000  0.0000  0.0000  0.0000 </r>
        <r>  0.1364  0.0000  0.0015  0.0000  0.0000  0.0000  0.0000  0.0000  0.0000 </r>
        <r>  0.0000  0.0013  0.0000  0.0015  0.0000  0.0000  0.0000  0.0000  0.0000 </r>
        <r>  0.0013  0.0015  0.0000  0.0013  0.0000  0.0000  0.0000  0.0000  0.0000 </r>
        <r>  0.1571  0.0000  0.0013  0.0000  0.0000  0.0000  0.0000  0.0000  0.0000 </r>
        <r>  0.1571  0.0000  0.0013  0.0000  0.0000  0.0000  0.0000  0.0000  0.0000 </r>
        <r>  0.0013  0.0015  0.0000  0.0013  0.0000  0.0000  0.0000  0.0000  0.0000 </r>
        <r>  0.1364  0.0000  0.0015  0.0000  0.0000  0.0000  0.0000  0.0000  0.0000 </r>
       </set>
      </set>
     </set>
    </set>
   </array>
  </projected>
 </calculation>
 <structure name="finalpos" >
  <crystal>
   <varray name="basis" >
    <v>       3.41252808      -0.00000000       0.00000000 </v>
    <v>      -0.00000000       3.41252808      -0.00000000 </v>
    <v>       0.00000000      -0.00000000       3.41252808 </v>
   </varray>
   <i name="volume">     39.74007653 </i>
   <varray name="rec_basis" >
    <v>       0.29303788       0.00000000      -0.00000000 </v>
    <v>       0.00000000       0.29303788       0.00000000 </v>
    <v>      -0.00000000       0.00000000       0.29303788 </v>
   </varray>
  </crystal>
  <varray name="positions" >
   <v>       0.75669600       0.75669600       0.75669600 </v>
   <v>       0.00669500       0.50669600       0.00669500 </v>
   <v>       0.50669600       0.50669600       0.50669600 </v>
   <v>       0.00669500       0.00669500       0.50669600 </v>
   <v>       0.50669600       0.00669500       0.00669500 </v>
   <v>       0.75669600       0.25669600       0.25669600 </v>
   <v>       0.25669600       0.25669600       0.75669600 </v>
   <v>       0.25669600       0.75669600       0.25669600 </v>
  </varray>
 </structure>
</modeling>
