unknown system                          
            1
     3.511887   -0.000000   -0.000000
     0.000000    3.511887   -0.000000
     0.000000    0.000000    3.511887
   C 
   8
Direct configuration=     1
   0.75669600  0.75669600  0.75669600
   0.00669500  0.50669600  0.00669500
   0.50669600  0.50669600  0.50669600
   0.00669500  0.00669500  0.50669600
   0.50669600  0.00669500  0.00669500
   0.75669600  0.25669600  0.25669600
   0.25669600  0.25669600  0.75669600
   0.25669600  0.75669600  0.25669600
unknown system                          
            1
     3.502569   -0.000000    0.000000
    -0.000000    3.502569   -0.000000
     0.000000   -0.000000    3.502569
   C 
   8
Direct configuration=     2
   0.75669600  0.75669600  0.75669600
   0.00669500  0.50669600  0.00669500
   0.50669600  0.50669600  0.50669600
   0.00669500  0.00669500  0.50669600
   0.50669600  0.00669500  0.00669500
   0.75669600  0.25669600  0.25669600
   0.25669600  0.25669600  0.75669600
   0.25669600  0.75669600  0.25669600
unknown system                          
            1
     3.474613   -0.000000    0.000000
    -0.000000    3.474613   -0.000000
     0.000000   -0.000000    3.474613
   C 
   8
Direct configuration=     3
   0.75669600  0.75669600  0.75669600
   0.00669500  0.50669600  0.00669500
   0.50669600  0.50669600  0.50669600
   0.00669500  0.00669500  0.50669600
   0.50669600  0.00669500  0.00669500
   0.75669600  0.25669600  0.25669600
   0.25669600  0.25669600  0.75669600
   0.25669600  0.75669600  0.25669600
unknown system                          
            1
     3.418702   -0.000000    0.000000
    -0.000000    3.418702   -0.000000
     0.000000   -0.000000    3.418702
   C 
   8
Direct configuration=     4
   0.75669600  0.75669600  0.75669600
   0.00669500  0.50669600  0.00669500
   0.50669600  0.50669600  0.50669600
   0.00669500  0.00669500  0.50669600
   0.50669600  0.00669500  0.00669500
   0.75669600  0.25669600  0.25669600
   0.25669600  0.25669600  0.75669600
   0.25669600  0.75669600  0.25669600
unknown system                          
            1
     3.412528   -0.000000    0.000000
    -0.000000    3.412528   -0.000000
     0.000000   -0.000000    3.412528
   C 
   8
Direct configuration=     5
   0.75669600  0.75669600  0.75669600
   0.00669500  0.50669600  0.00669500
   0.50669600  0.50669600  0.50669600
   0.00669500  0.00669500  0.50669600
   0.50669600  0.00669500  0.00669500
   0.75669600  0.25669600  0.25669600
   0.25669600  0.25669600  0.75669600
   0.25669600  0.75669600  0.25669600
