   4   4   1   0
  0.5717550E+01  0.2513094E-09  0.2513094E-09  0.4181402E-09  0.1500000E-16
   1.0000000000000000E-004
  CAR 
 unknown system                          
     34.88104681    -13.80607747  301     12.17053197      1.00000000
    -13.806  0.0000E+00  0.0000E+00  0.0000E+00  0.0000E+00
    -13.644  0.0000E+00  0.0000E+00  0.0000E+00  0.0000E+00
    -13.481  0.0000E+00  0.0000E+00  0.0000E+00  0.0000E+00
    -13.319  0.0000E+00  0.0000E+00  0.0000E+00  0.0000E+00
    -13.157  0.0000E+00  0.0000E+00  0.0000E+00  0.0000E+00
    -12.995  0.0000E+00  0.0000E+00  0.0000E+00  0.0000E+00
    -12.832  0.0000E+00  0.0000E+00  0.0000E+00  0.0000E+00
    -12.670  0.0000E+00  0.0000E+00  0.0000E+00  0.0000E+00
    -12.508  0.0000E+00  0.0000E+00  0.0000E+00  0.0000E+00
    -12.345  0.0000E+00  0.0000E+00  0.0000E+00  0.0000E+00
    -12.183  0.0000E+00  0.0000E+00  0.0000E+00  0.0000E+00
    -12.021  0.0000E+00  0.0000E+00  0.0000E+00  0.0000E+00
    -11.859  0.0000E+00  0.0000E+00  0.0000E+00  0.0000E+00
    -11.696  0.0000E+00  0.0000E+00  0.0000E+00  0.0000E+00
    -11.534  0.4548E-04  0.4547E-04  0.8947E-06  0.8945E-06
    -11.372  0.4053E-03  0.4053E-03  0.3870E-04  0.3870E-04
    -11.209  0.5428E-03  0.5428E-03  0.1171E-03  0.1171E-03
    -11.047  0.6864E-03  0.6864E-03  0.2182E-03  0.2182E-03
    -10.885  0.7780E-03  0.7780E-03  0.3366E-03  0.3366E-03
    -10.723  0.9087E-03  0.9087E-03  0.4735E-03  0.4735E-03
    -10.560  0.9922E-03  0.9922E-03  0.6283E-03  0.6283E-03
    -10.398  0.1050E-02  0.1050E-02  0.7941E-03  0.7941E-03
    -10.236  0.1119E-02  0.1119E-02  0.9698E-03  0.9698E-03
    -10.073  0.1203E-02  0.1203E-02  0.1158E-02  0.1158E-02
     -9.911  0.1288E-02  0.1288E-02  0.1360E-02  0.1360E-02
     -9.749  0.1354E-02  0.1354E-02  0.1575E-02  0.1575E-02
     -9.587  0.1404E-02  0.1404E-02  0.1799E-02  0.1799E-02
     -9.424  0.1462E-02  0.1462E-02  0.2031E-02  0.2031E-02
     -9.262  0.1518E-02  0.1518E-02  0.2273E-02  0.2273E-02
     -9.100  0.1580E-02  0.1580E-02  0.2524E-02  0.2524E-02
     -8.937  0.1642E-02  0.1642E-02  0.2786E-02  0.2786E-02
     -8.775  0.1691E-02  0.1691E-02  0.3056E-02  0.3056E-02
     -8.613  0.1745E-02  0.1745E-02  0.3335E-02  0.3335E-02
     -8.450  0.1804E-02  0.1804E-02  0.3623E-02  0.3623E-02
     -8.288  0.1860E-02  0.1860E-02  0.3921E-02  0.3921E-02
     -8.126  0.1910E-02  0.1910E-02  0.4226E-02  0.4226E-02
     -7.964  0.1964E-02  0.1964E-02  0.4541E-02  0.4541E-02
     -7.801  0.2017E-02  0.2017E-02  0.4864E-02  0.4864E-02
     -7.639  0.2064E-02  0.2064E-02  0.5195E-02  0.5195E-02
     -7.477  0.2115E-02  0.2115E-02  0.5534E-02  0.5534E-02
     -7.314  0.2167E-02  0.2167E-02  0.5882E-02  0.5882E-02
     -7.152  0.2223E-02  0.2223E-02  0.6238E-02  0.6238E-02
     -6.990  0.2282E-02  0.2282E-02  0.6603E-02  0.6603E-02
     -6.828  0.2344E-02  0.2344E-02  0.6979E-02  0.6979E-02
     -6.665  0.2410E-02  0.2410E-02  0.7364E-02  0.7364E-02
     -6.503  0.2491E-02  0.2491E-02  0.7762E-02  0.7762E-02
     -6.341  0.2579E-02  0.2579E-02  0.8173E-02  0.8173E-02
     -6.178  0.2690E-02  0.2690E-02  0.8600E-02  0.8600E-02
     -6.016  0.2815E-02  0.2815E-02  0.9047E-02  0.9047E-02
     -5.854  0.3182E-02  0.3182E-02  0.9532E-02  0.9532E-02
     -5.692  0.3181E-02  0.3181E-02  0.1006E-01  0.1006E-01
     -5.529  0.3070E-02  0.3070E-02  0.1056E-01  0.1056E-01
     -5.367  0.3048E-02  0.3048E-02  0.1106E-01  0.1106E-01
     -5.205  0.3235E-02  0.3235E-02  0.1156E-01  0.1156E-01
     -5.042  0.2927E-02  0.2927E-02  0.1207E-01  0.1207E-01
     -4.880  0.2831E-02  0.2831E-02  0.1254E-01  0.1254E-01
     -4.718  0.2746E-02  0.2746E-02  0.1299E-01  0.1299E-01
     -4.556  0.2662E-02  0.2662E-02  0.1343E-01  0.1343E-01
     -4.393  0.2546E-02  0.2546E-02  0.1385E-01  0.1385E-01
     -4.231  0.2460E-02  0.2460E-02  0.1426E-01  0.1426E-01
     -4.069  0.2420E-02  0.2420E-02  0.1466E-01  0.1466E-01
     -3.906  0.2323E-02  0.2323E-02  0.1504E-01  0.1504E-01
     -3.744  0.2446E-02  0.2446E-02  0.1542E-01  0.1542E-01
     -3.582  0.2976E-02  0.2976E-02  0.1585E-01  0.1585E-01
     -3.419  0.3238E-02  0.3238E-02  0.1636E-01  0.1636E-01
     -3.257  0.3443E-02  0.3443E-02  0.1691E-01  0.1691E-01
     -3.095  0.3238E-02  0.3238E-02  0.1745E-01  0.1745E-01
     -2.933  0.3358E-02  0.3358E-02  0.1800E-01  0.1800E-01
     -2.770  0.3181E-02  0.3181E-02  0.1853E-01  0.1853E-01
     -2.608  0.3306E-02  0.3306E-02  0.1905E-01  0.1905E-01
     -2.446  0.2355E-02  0.2355E-02  0.1949E-01  0.1949E-01
     -2.283  0.2103E-02  0.2103E-02  0.1985E-01  0.1985E-01
     -2.121  0.1972E-02  0.1972E-02  0.2018E-01  0.2018E-01
     -1.959  0.2148E-02  0.2148E-02  0.2052E-01  0.2052E-01
     -1.797  0.2225E-02  0.2225E-02  0.2087E-01  0.2087E-01
     -1.634  0.2580E-02  0.2580E-02  0.2125E-01  0.2125E-01
     -1.472  0.3196E-02  0.3196E-02  0.2173E-01  0.2173E-01
     -1.310  0.3796E-02  0.3796E-02  0.2230E-01  0.2230E-01
     -1.147  0.3953E-02  0.3953E-02  0.2293E-01  0.2293E-01
     -0.985  0.4255E-02  0.4255E-02  0.2359E-01  0.2359E-01
     -0.823  0.4648E-02  0.4648E-02  0.2432E-01  0.2432E-01
     -0.661  0.4364E-02  0.4364E-02  0.2506E-01  0.2506E-01
     -0.498  0.3971E-02  0.3971E-02  0.2573E-01  0.2573E-01
     -0.336  0.3749E-02  0.3749E-02  0.2635E-01  0.2635E-01
     -0.174  0.3681E-02  0.3681E-02  0.2696E-01  0.2696E-01
     -0.011  0.3284E-02  0.3284E-02  0.2753E-01  0.2753E-01
      0.151  0.3052E-02  0.3052E-02  0.2804E-01  0.2804E-01
      0.313  0.2859E-02  0.2859E-02  0.2852E-01  0.2852E-01
      0.475  0.2824E-02  0.2824E-02  0.2899E-01  0.2899E-01
      0.638  0.3054E-02  0.3054E-02  0.2947E-01  0.2947E-01
      0.800  0.3588E-02  0.3588E-02  0.3000E-01  0.3000E-01
      0.962  0.4240E-02  0.4240E-02  0.3063E-01  0.3063E-01
      1.125  0.4825E-02  0.4825E-02  0.3137E-01  0.3137E-01
      1.287  0.5080E-02  0.5080E-02  0.3218E-01  0.3218E-01
      1.449  0.5047E-02  0.5047E-02  0.3300E-01  0.3300E-01
      1.612  0.4621E-02  0.4621E-02  0.3379E-01  0.3379E-01
      1.774  0.4289E-02  0.4289E-02  0.3452E-01  0.3452E-01
      1.936  0.4124E-02  0.4124E-02  0.3519E-01  0.3519E-01
      2.098  0.4054E-02  0.4054E-02  0.3586E-01  0.3586E-01
      2.261  0.3927E-02  0.3927E-02  0.3651E-01  0.3651E-01
      2.423  0.3880E-02  0.3880E-02  0.3714E-01  0.3714E-01
      2.585  0.3876E-02  0.3876E-02  0.3777E-01  0.3777E-01
      2.748  0.4024E-02  0.4024E-02  0.3841E-01  0.3841E-01
      2.910  0.4344E-02  0.4344E-02  0.3909E-01  0.3909E-01
      3.072  0.4676E-02  0.4676E-02  0.3982E-01  0.3982E-01
      3.234  0.4948E-02  0.4948E-02  0.4061E-01  0.4061E-01
      3.397  0.5172E-02  0.5172E-02  0.4143E-01  0.4143E-01
      3.559  0.5344E-02  0.5344E-02  0.4228E-01  0.4228E-01
      3.721  0.5411E-02  0.5411E-02  0.4316E-01  0.4316E-01
      3.884  0.4899E-02  0.4899E-02  0.4402E-01  0.4402E-01
      4.046  0.5121E-02  0.5121E-02  0.4483E-01  0.4483E-01
      4.208  0.5150E-02  0.5150E-02  0.4568E-01  0.4568E-01
      4.370  0.5072E-02  0.5072E-02  0.4650E-01  0.4650E-01
      4.533  0.5515E-02  0.5515E-02  0.4736E-01  0.4736E-01
      4.695  0.5704E-02  0.5704E-02  0.4827E-01  0.4827E-01
      4.857  0.5843E-02  0.5843E-02  0.4921E-01  0.4921E-01
      5.020  0.6004E-02  0.6004E-02  0.5016E-01  0.5016E-01
      5.182  0.5927E-02  0.5927E-02  0.5112E-01  0.5112E-01
      5.344  0.6379E-02  0.6379E-02  0.5211E-01  0.5211E-01
      5.506  0.6967E-02  0.6967E-02  0.5320E-01  0.5320E-01
      5.669  0.7335E-02  0.7335E-02  0.5435E-01  0.5435E-01
      5.831  0.7145E-02  0.7145E-02  0.5552E-01  0.5552E-01
      5.993  0.6734E-02  0.6734E-02  0.5666E-01  0.5666E-01
      6.156  0.6210E-02  0.6210E-02  0.5770E-01  0.5770E-01
      6.318  0.6181E-02  0.6181E-02  0.5870E-01  0.5870E-01
      6.480  0.6537E-02  0.6537E-02  0.5973E-01  0.5973E-01
      6.643  0.8331E-02  0.8331E-02  0.6091E-01  0.6091E-01
      6.805  0.8834E-02  0.8834E-02  0.6233E-01  0.6233E-01
      6.967  0.9902E-02  0.9902E-02  0.6383E-01  0.6383E-01
      7.129  0.8964E-02  0.8964E-02  0.6551E-01  0.6551E-01
      7.292  0.7442E-02  0.7442E-02  0.6682E-01  0.6682E-01
      7.454  0.6956E-02  0.6956E-02  0.6798E-01  0.6798E-01
      7.616  0.6687E-02  0.6687E-02  0.6909E-01  0.6909E-01
      7.779  0.6371E-02  0.6371E-02  0.7016E-01  0.7016E-01
      7.941  0.5902E-02  0.5902E-02  0.7114E-01  0.7114E-01
      8.103  0.5599E-02  0.5599E-02  0.7208E-01  0.7208E-01
      8.265  0.5076E-02  0.5076E-02  0.7295E-01  0.7295E-01
      8.428  0.4624E-02  0.4624E-02  0.7374E-01  0.7374E-01
      8.590  0.4053E-02  0.4053E-02  0.7444E-01  0.7444E-01
      8.752  0.3523E-02  0.3523E-02  0.7505E-01  0.7505E-01
      8.915  0.3209E-02  0.3209E-02  0.7560E-01  0.7560E-01
      9.077  0.3035E-02  0.3035E-02  0.7610E-01  0.7610E-01
      9.239  0.2834E-02  0.2834E-02  0.7658E-01  0.7658E-01
      9.401  0.2560E-02  0.2560E-02  0.7702E-01  0.7702E-01
      9.564  0.2337E-02  0.2337E-02  0.7741E-01  0.7741E-01
      9.726  0.2160E-02  0.2160E-02  0.7778E-01  0.7778E-01
      9.888  0.2016E-02  0.2016E-02  0.7812E-01  0.7812E-01
     10.051  0.1788E-02  0.1788E-02  0.7843E-01  0.7843E-01
     10.213  0.1566E-02  0.1566E-02  0.7870E-01  0.7870E-01
     10.375  0.1371E-02  0.1371E-02  0.7894E-01  0.7894E-01
     10.537  0.1183E-02  0.1183E-02  0.7914E-01  0.7914E-01
     10.700  0.1010E-02  0.1010E-02  0.7932E-01  0.7932E-01
     10.862  0.8714E-03  0.8714E-03  0.7947E-01  0.7947E-01
     11.024  0.7574E-03  0.7574E-03  0.7961E-01  0.7961E-01
     11.187  0.6506E-03  0.6506E-03  0.7972E-01  0.7972E-01
     11.349  0.5100E-03  0.5100E-03  0.7981E-01  0.7981E-01
     11.511  0.4056E-03  0.4056E-03  0.7989E-01  0.7989E-01
     11.674  0.2978E-03  0.2978E-03  0.7995E-01  0.7995E-01
     11.836  0.1700E-03  0.1699E-03  0.7998E-01  0.7998E-01
     11.998  0.3190E-04  0.3190E-04  0.8000E-01  0.8000E-01
     12.160  0.0000E+00  0.0000E+00  0.8000E-01  0.8000E-01
     12.323  0.0000E+00  0.0000E+00  0.8000E-01  0.8000E-01
     12.485  0.0000E+00  0.0000E+00  0.8000E-01  0.8000E-01
     12.647  0.0000E+00  0.0000E+00  0.8000E-01  0.8000E-01
     12.810  0.0000E+00  0.0000E+00  0.8000E-01  0.8000E-01
     12.972  0.0000E+00  0.0000E+00  0.8000E-01  0.8000E-01
     13.134  0.0000E+00  0.0000E+00  0.8000E-01  0.8000E-01
     13.296  0.0000E+00  0.0000E+00  0.8000E-01  0.8000E-01
     13.459  0.0000E+00  0.0000E+00  0.8000E-01  0.8000E-01
     13.621  0.0000E+00  0.0000E+00  0.8000E-01  0.8000E-01
     13.783  0.0000E+00  0.0000E+00  0.8000E-01  0.8000E-01
     13.946  0.0000E+00  0.0000E+00  0.8000E-01  0.8000E-01
     14.108  0.0000E+00  0.0000E+00  0.8000E-01  0.8000E-01
     14.270  0.0000E+00  0.0000E+00  0.8000E-01  0.8000E-01
     14.432  0.0000E+00  0.0000E+00  0.8000E-01  0.8000E-01
     14.595  0.0000E+00  0.0000E+00  0.8000E-01  0.8000E-01
     14.757  0.0000E+00  0.0000E+00  0.8000E-01  0.8000E-01
     14.919  0.0000E+00  0.0000E+00  0.8000E-01  0.8000E-01
     15.082  0.4898E-04  0.4898E-04  0.8000E-01  0.8000E-01
     15.244  0.1022E-03  0.1022E-03  0.8002E-01  0.8002E-01
     15.406  0.1581E-03  0.1581E-03  0.8004E-01  0.8004E-01
     15.568  0.2190E-03  0.2190E-03  0.8007E-01  0.8007E-01
     15.731  0.2857E-03  0.2857E-03  0.8011E-01  0.8011E-01
     15.893  0.3550E-03  0.3550E-03  0.8016E-01  0.8016E-01
     16.055  0.3856E-03  0.3856E-03  0.8022E-01  0.8022E-01
     16.218  0.4201E-03  0.4201E-03  0.8029E-01  0.8029E-01
     16.380  0.4564E-03  0.4564E-03  0.8036E-01  0.8036E-01
     16.542  0.4929E-03  0.4929E-03  0.8043E-01  0.8043E-01
     16.705  0.5361E-03  0.5361E-03  0.8052E-01  0.8052E-01
     16.867  0.5904E-03  0.5904E-03  0.8061E-01  0.8061E-01
     17.029  0.9641E-03  0.9641E-03  0.8073E-01  0.8073E-01
     17.191  0.1675E-02  0.1675E-02  0.8094E-01  0.8094E-01
     17.354  0.2876E-02  0.2876E-02  0.8130E-01  0.8130E-01
     17.516  0.4818E-02  0.4818E-02  0.8191E-01  0.8191E-01
     17.678  0.6701E-02  0.6701E-02  0.8284E-01  0.8284E-01
     17.841  0.5726E-02  0.5726E-02  0.8385E-01  0.8385E-01
     18.003  0.4985E-02  0.4985E-02  0.8473E-01  0.8473E-01
     18.165  0.4784E-02  0.4784E-02  0.8552E-01  0.8552E-01
     18.327  0.4883E-02  0.4883E-02  0.8630E-01  0.8630E-01
     18.490  0.5036E-02  0.5036E-02  0.8711E-01  0.8711E-01
     18.652  0.5194E-02  0.5194E-02  0.8794E-01  0.8794E-01
     18.814  0.5873E-02  0.5873E-02  0.8883E-01  0.8883E-01
     18.977  0.6182E-02  0.6182E-02  0.8979E-01  0.8979E-01
     19.139  0.6733E-02  0.6733E-02  0.9083E-01  0.9083E-01
     19.301  0.7417E-02  0.7417E-02  0.9198E-01  0.9198E-01
     19.463  0.9095E-02  0.9095E-02  0.9330E-01  0.9330E-01
     19.626  0.1009E-01  0.1009E-01  0.9489E-01  0.9489E-01
     19.788  0.1045E-01  0.1045E-01  0.9659E-01  0.9659E-01
     19.950  0.8555E-02  0.8555E-02  0.9813E-01  0.9813E-01
     20.113  0.8226E-02  0.8226E-02  0.9949E-01  0.9949E-01
     20.275  0.5709E-02  0.5709E-02  0.1006E+00  0.1006E+00
     20.437  0.5863E-02  0.5863E-02  0.1015E+00  0.1015E+00
     20.599  0.6752E-02  0.6752E-02  0.1025E+00  0.1025E+00
     20.762  0.6211E-02  0.6211E-02  0.1036E+00  0.1036E+00
     20.924  0.5393E-02  0.5393E-02  0.1045E+00  0.1045E+00
     21.086  0.5270E-02  0.5270E-02  0.1054E+00  0.1054E+00
     21.249  0.5462E-02  0.5462E-02  0.1062E+00  0.1062E+00
     21.411  0.5861E-02  0.5861E-02  0.1072E+00  0.1072E+00
     21.573  0.6539E-02  0.6539E-02  0.1082E+00  0.1082E+00
     21.736  0.8063E-02  0.8063E-02  0.1094E+00  0.1094E+00
     21.898  0.8646E-02  0.8646E-02  0.1107E+00  0.1107E+00
     22.060  0.8496E-02  0.8496E-02  0.1121E+00  0.1121E+00
     22.222  0.8344E-02  0.8344E-02  0.1135E+00  0.1135E+00
     22.385  0.7154E-02  0.7154E-02  0.1148E+00  0.1148E+00
     22.547  0.6129E-02  0.6129E-02  0.1159E+00  0.1159E+00
     22.709  0.5482E-02  0.5482E-02  0.1168E+00  0.1168E+00
     22.872  0.5016E-02  0.5016E-02  0.1177E+00  0.1177E+00
     23.034  0.4808E-02  0.4808E-02  0.1185E+00  0.1185E+00
     23.196  0.5211E-02  0.5211E-02  0.1193E+00  0.1193E+00
     23.358  0.4782E-02  0.4782E-02  0.1201E+00  0.1201E+00
     23.521  0.4592E-02  0.4592E-02  0.1209E+00  0.1209E+00
     23.683  0.5308E-02  0.5308E-02  0.1217E+00  0.1217E+00
     23.845  0.6944E-02  0.6944E-02  0.1226E+00  0.1226E+00
     24.008  0.7558E-02  0.7558E-02  0.1239E+00  0.1239E+00
     24.170  0.6655E-02  0.6655E-02  0.1251E+00  0.1251E+00
     24.332  0.6008E-02  0.6008E-02  0.1261E+00  0.1261E+00
     24.494  0.6167E-02  0.6167E-02  0.1271E+00  0.1271E+00
     24.657  0.5786E-02  0.5786E-02  0.1280E+00  0.1280E+00
     24.819  0.5853E-02  0.5853E-02  0.1290E+00  0.1290E+00
     24.981  0.5496E-02  0.5496E-02  0.1299E+00  0.1299E+00
     25.144  0.5020E-02  0.5020E-02  0.1308E+00  0.1308E+00
     25.306  0.4718E-02  0.4718E-02  0.1316E+00  0.1316E+00
     25.468  0.4108E-02  0.4108E-02  0.1323E+00  0.1323E+00
     25.630  0.3541E-02  0.3541E-02  0.1329E+00  0.1329E+00
     25.793  0.3419E-02  0.3419E-02  0.1334E+00  0.1334E+00
     25.955  0.3084E-02  0.3084E-02  0.1340E+00  0.1340E+00
     26.117  0.3416E-02  0.3416E-02  0.1345E+00  0.1345E+00
     26.280  0.4171E-02  0.4171E-02  0.1351E+00  0.1351E+00
     26.442  0.4555E-02  0.4555E-02  0.1358E+00  0.1358E+00
     26.604  0.4227E-02  0.4227E-02  0.1365E+00  0.1365E+00
     26.767  0.3944E-02  0.3944E-02  0.1372E+00  0.1372E+00
     26.929  0.3730E-02  0.3730E-02  0.1378E+00  0.1378E+00
     27.091  0.4088E-02  0.4088E-02  0.1384E+00  0.1384E+00
     27.253  0.4587E-02  0.4587E-02  0.1391E+00  0.1391E+00
     27.416  0.6772E-02  0.6772E-02  0.1400E+00  0.1400E+00
     27.578  0.5860E-02  0.5860E-02  0.1410E+00  0.1410E+00
     27.740  0.5273E-02  0.5273E-02  0.1419E+00  0.1419E+00
     27.903  0.4759E-02  0.4759E-02  0.1427E+00  0.1427E+00
     28.065  0.4672E-02  0.4672E-02  0.1435E+00  0.1435E+00
     28.227  0.4641E-02  0.4641E-02  0.1442E+00  0.1442E+00
     28.389  0.4693E-02  0.4693E-02  0.1450E+00  0.1450E+00
     28.552  0.4852E-02  0.4852E-02  0.1458E+00  0.1458E+00
     28.714  0.5776E-02  0.5776E-02  0.1466E+00  0.1466E+00
     28.876  0.6718E-02  0.6718E-02  0.1476E+00  0.1476E+00
     29.039  0.8606E-02  0.8606E-02  0.1489E+00  0.1489E+00
     29.201  0.7443E-02  0.7443E-02  0.1502E+00  0.1502E+00
     29.363  0.7627E-02  0.7627E-02  0.1514E+00  0.1514E+00
     29.525  0.7364E-02  0.7364E-02  0.1526E+00  0.1526E+00
     29.688  0.8447E-02  0.8446E-02  0.1538E+00  0.1538E+00
     29.850  0.5995E-02  0.5995E-02  0.1549E+00  0.1549E+00
     30.012  0.4831E-02  0.4831E-02  0.1558E+00  0.1558E+00
     30.175  0.3934E-02  0.3934E-02  0.1565E+00  0.1565E+00
     30.337  0.3199E-02  0.3199E-02  0.1570E+00  0.1570E+00
     30.499  0.2586E-02  0.2586E-02  0.1575E+00  0.1575E+00
     30.661  0.2171E-02  0.2171E-02  0.1579E+00  0.1579E+00
     30.824  0.1899E-02  0.1899E-02  0.1582E+00  0.1582E+00
     30.986  0.1605E-02  0.1605E-02  0.1585E+00  0.1585E+00
     31.148  0.1410E-02  0.1410E-02  0.1588E+00  0.1588E+00
     31.311  0.1342E-02  0.1342E-02  0.1590E+00  0.1590E+00
     31.473  0.1356E-02  0.1356E-02  0.1592E+00  0.1592E+00
     31.635  0.1239E-02  0.1239E-02  0.1594E+00  0.1594E+00
     31.798  0.1001E-02  0.1001E-02  0.1596E+00  0.1596E+00
     31.960  0.7930E-03  0.7930E-03  0.1597E+00  0.1597E+00
     32.122  0.5987E-03  0.5987E-03  0.1599E+00  0.1599E+00
     32.284  0.4183E-03  0.4182E-03  0.1599E+00  0.1599E+00
     32.447  0.2019E-03  0.2018E-03  0.1600E+00  0.1600E+00
     32.609  0.1436E-04  0.1435E-04  0.1600E+00  0.1600E+00
     32.771  0.0000E+00  0.0000E+00  0.1600E+00  0.1600E+00
     32.934  0.0000E+00  0.0000E+00  0.1600E+00  0.1600E+00
     33.096  0.0000E+00  0.0000E+00  0.1600E+00  0.1600E+00
     33.258  0.0000E+00  0.0000E+00  0.1600E+00  0.1600E+00
     33.420  0.0000E+00  0.0000E+00  0.1600E+00  0.1600E+00
     33.583  0.0000E+00  0.0000E+00  0.1600E+00  0.1600E+00
     33.745  0.0000E+00  0.0000E+00  0.1600E+00  0.1600E+00
     33.907  0.0000E+00  0.0000E+00  0.1600E+00  0.1600E+00
     34.070  0.0000E+00  0.0000E+00  0.1600E+00  0.1600E+00
     34.232  0.0000E+00  0.0000E+00  0.1600E+00  0.1600E+00
     34.394  0.0000E+00  0.0000E+00  0.1600E+00  0.1600E+00
     34.556  0.0000E+00  0.0000E+00  0.1600E+00  0.1600E+00
     34.719  0.0000E+00  0.0000E+00  0.1600E+00  0.1600E+00
     34.881  0.0000E+00  0.0000E+00  0.1600E+00  0.1600E+00
     34.88104681    -13.80607747  301     12.17053197      1.00000000
    -13.806  0.0000E+00  0.0000E+00  0.0000E+00  0.0000E+00  0.0000E+00  0.0000E+00  0.0000E+00  0.0000E+00  0.0000E+00  0.0000E+00  0.0000E+00  0.0000E+00  0.0000E+00  0.0000E+00  0.0000E+00  0.0000E+00  0.0000E+00  0.0000E+00
    -13.644  0.0000E+00  0.0000E+00  0.0000E+00  0.0000E+00  0.0000E+00  0.0000E+00  0.0000E+00  0.0000E+00  0.0000E+00  0.0000E+00  0.0000E+00  0.0000E+00  0.0000E+00  0.0000E+00  0.0000E+00  0.0000E+00  0.0000E+00  0.0000E+00
    -13.481  0.0000E+00  0.0000E+00  0.0000E+00  0.0000E+00  0.0000E+00  0.0000E+00  0.0000E+00  0.0000E+00  0.0000E+00  0.0000E+00  0.0000E+00  0.0000E+00  0.0000E+00  0.0000E+00  0.0000E+00  0.0000E+00  0.0000E+00  0.0000E+00
    -13.319  0.0000E+00  0.0000E+00  0.0000E+00  0.0000E+00  0.0000E+00  0.0000E+00  0.0000E+00  0.0000E+00  0.0000E+00  0.0000E+00  0.0000E+00  0.0000E+00  0.0000E+00  0.0000E+00  0.0000E+00  0.0000E+00  0.0000E+00  0.0000E+00
    -13.157  0.0000E+00  0.0000E+00  0.0000E+00  0.0000E+00  0.0000E+00  0.0000E+00  0.0000E+00  0.0000E+00  0.0000E+00  0.0000E+00  0.0000E+00  0.0000E+00  0.0000E+00  0.0000E+00  0.0000E+00  0.0000E+00  0.0000E+00  0.0000E+00
    -12.995  0.0000E+00  0.0000E+00  0.0000E+00  0.0000E+00  0.0000E+00  0.0000E+00  0.0000E+00  0.0000E+00  0.0000E+00  0.0000E+00  0.0000E+00  0.0000E+00  0.0000E+00  0.0000E+00  0.0000E+00  0.0000E+00  0.0000E+00  0.0000E+00
    -12.832  0.0000E+00  0.0000E+00  0.0000E+00  0.0000E+00  0.0000E+00  0.0000E+00  0.0000E+00  0.0000E+00  0.0000E+00  0.0000E+00  0.0000E+00  0.0000E+00  0.0000E+00  0.0000E+00  0.0000E+00  0.0000E+00  0.0000E+00  0.0000E+00
    -12.670  0.0000E+00  0.0000E+00  0.0000E+00  0.0000E+00  0.0000E+00  0.0000E+00  0.0000E+00  0.0000E+00  0.0000E+00  0.0000E+00  0.0000E+00  0.0000E+00  0.0000E+00  0.0000E+00  0.0000E+00  0.0000E+00  0.0000E+00  0.0000E+00
    -12.508  0.0000E+00  0.0000E+00  0.0000E+00  0.0000E+00  0.0000E+00  0.0000E+00  0.0000E+00  0.0000E+00  0.0000E+00  0.0000E+00  0.0000E+00  0.0000E+00  0.0000E+00  0.0000E+00  0.0000E+00  0.0000E+00  0.0000E+00  0.0000E+00
    -12.345  0.0000E+00  0.0000E+00  0.0000E+00  0.0000E+00  0.0000E+00  0.0000E+00  0.0000E+00  0.0000E+00  0.0000E+00  0.0000E+00  0.0000E+00  0.0000E+00  0.0000E+00  0.0000E+00  0.0000E+00  0.0000E+00  0.0000E+00  0.0000E+00
    -12.183  0.0000E+00  0.0000E+00  0.0000E+00  0.0000E+00  0.0000E+00  0.0000E+00  0.0000E+00  0.0000E+00  0.0000E+00  0.0000E+00  0.0000E+00  0.0000E+00  0.0000E+00  0.0000E+00  0.0000E+00  0.0000E+00  0.0000E+00  0.0000E+00
    -12.021  0.0000E+00  0.0000E+00  0.0000E+00  0.0000E+00  0.0000E+00  0.0000E+00  0.0000E+00  0.0000E+00  0.0000E+00  0.0000E+00  0.0000E+00  0.0000E+00  0.0000E+00  0.0000E+00  0.0000E+00  0.0000E+00  0.0000E+00  0.0000E+00
    -11.859  0.0000E+00  0.0000E+00  0.0000E+00  0.0000E+00  0.0000E+00  0.0000E+00  0.0000E+00  0.0000E+00  0.0000E+00  0.0000E+00  0.0000E+00  0.0000E+00  0.0000E+00  0.0000E+00  0.0000E+00  0.0000E+00  0.0000E+00  0.0000E+00
    -11.696  0.0000E+00  0.0000E+00  0.0000E+00  0.0000E+00  0.0000E+00  0.0000E+00  0.0000E+00  0.0000E+00  0.0000E+00  0.0000E+00  0.0000E+00  0.0000E+00  0.0000E+00  0.0000E+00  0.0000E+00  0.0000E+00  0.0000E+00  0.0000E+00
    -11.534  0.6744E-03  0.6742E-03  0.7185E-06  0.7183E-06  0.2346E-05  0.2345E-05  0.2155E-05  0.2155E-05  0.0000E+00  0.0000E+00  0.0000E+00  0.0000E+00  0.0000E+00  0.0000E+00  0.0000E+00  0.0000E+00  0.0000E+00  0.0000E+00
    -11.372  0.5986E-02  0.5986E-02  0.1835E-04  0.1834E-04  0.3119E-04  0.3119E-04  0.2704E-04  0.2704E-04  0.0000E+00  0.0000E+00  0.0000E+00  0.0000E+00  0.0000E+00  0.0000E+00  0.0000E+00  0.0000E+00  0.0000E+00  0.0000E+00
    -11.209  0.7965E-02  0.7965E-02  0.5039E-04  0.5039E-04  0.6406E-04  0.6406E-04  0.5633E-04  0.5633E-04  0.0000E+00  0.0000E+00  0.0000E+00  0.0000E+00  0.0000E+00  0.0000E+00  0.0000E+00  0.0000E+00  0.0000E+00  0.0000E+00
    -11.047  0.1001E-01  0.1001E-01  0.8771E-04  0.8770E-04  0.1075E-03  0.1075E-03  0.9749E-04  0.9749E-04  0.0000E+00  0.0000E+00  0.0000E+00  0.0000E+00  0.0000E+00  0.0000E+00  0.0000E+00  0.0000E+00  0.0000E+00  0.0000E+00
    -10.885  0.1128E-01  0.1128E-01  0.1361E-03  0.1361E-03  0.1513E-03  0.1513E-03  0.1406E-03  0.1406E-03  0.0000E+00  0.0000E+00  0.0000E+00  0.0000E+00  0.0000E+00  0.0000E+00  0.0000E+00  0.0000E+00  0.0000E+00  0.0000E+00
    -10.723  0.1310E-01  0.1310E-01  0.1833E-03  0.1833E-03  0.2107E-03  0.2107E-03  0.1965E-03  0.1965E-03  0.0000E+00  0.0000E+00  0.0000E+00  0.0000E+00  0.0000E+00  0.0000E+00  0.0000E+00  0.0000E+00  0.0000E+00  0.0000E+00
    -10.560  0.1410E-01  0.1410E-01  0.2327E-03  0.2327E-03  0.2839E-03  0.2839E-03  0.2575E-03  0.2575E-03  0.0000E+00  0.0000E+00  0.0000E+00  0.0000E+00  0.0000E+00  0.0000E+00  0.0000E+00  0.0000E+00  0.0000E+00  0.0000E+00
    -10.398  0.1469E-01  0.1469E-01  0.2971E-03  0.2971E-03  0.3615E-03  0.3614E-03  0.3161E-03  0.3161E-03  0.0000E+00  0.0000E+00  0.0000E+00  0.0000E+00  0.0000E+00  0.0000E+00  0.0000E+00  0.0000E+00  0.0000E+00  0.0000E+00
    -10.236  0.1540E-01  0.1540E-01  0.3692E-03  0.3692E-03  0.4539E-03  0.4539E-03  0.3751E-03  0.3751E-03  0.0000E+00  0.0000E+00  0.0000E+00  0.0000E+00  0.0000E+00  0.0000E+00  0.0000E+00  0.0000E+00  0.0000E+00  0.0000E+00
    -10.073  0.1631E-01  0.1631E-01  0.4305E-03  0.4305E-03  0.5503E-03  0.5503E-03  0.4418E-03  0.4418E-03  0.0000E+00  0.0000E+00  0.0000E+00  0.0000E+00  0.0000E+00  0.0000E+00  0.0000E+00  0.0000E+00  0.0000E+00  0.0000E+00
     -9.911  0.1720E-01  0.1720E-01  0.4916E-03  0.4916E-03  0.6528E-03  0.6528E-03  0.5130E-03  0.5130E-03  0.0000E+00  0.0000E+00  0.0000E+00  0.0000E+00  0.0000E+00  0.0000E+00  0.0000E+00  0.0000E+00  0.0000E+00  0.0000E+00
     -9.749  0.1776E-01  0.1776E-01  0.5693E-03  0.5693E-03  0.7652E-03  0.7652E-03  0.5884E-03  0.5884E-03  0.0000E+00  0.0000E+00  0.0000E+00  0.0000E+00  0.0000E+00  0.0000E+00  0.0000E+00  0.0000E+00  0.0000E+00  0.0000E+00
     -9.587  0.1848E-01  0.1848E-01  0.6531E-03  0.6531E-03  0.8288E-03  0.8288E-03  0.6660E-03  0.6660E-03  0.0000E+00  0.0000E+00  0.0000E+00  0.0000E+00  0.0000E+00  0.0000E+00  0.0000E+00  0.0000E+00  0.0000E+00  0.0000E+00
     -9.424  0.1932E-01  0.1932E-01  0.7341E-03  0.7341E-03  0.8899E-03  0.8899E-03  0.7438E-03  0.7438E-03  0.0000E+00  0.0000E+00  0.0000E+00  0.0000E+00  0.0000E+00  0.0000E+00  0.0000E+00  0.0000E+00  0.0000E+00  0.0000E+00
     -9.262  0.2018E-01  0.2018E-01  0.8152E-03  0.8152E-03  0.9463E-03  0.9463E-03  0.8256E-03  0.8256E-03  0.0000E+00  0.0000E+00  0.0000E+00  0.0000E+00  0.0000E+00  0.0000E+00  0.0000E+00  0.0000E+00  0.0000E+00  0.0000E+00
     -9.100  0.2107E-01  0.2107E-01  0.8925E-03  0.8925E-03  0.1010E-02  0.1010E-02  0.9147E-03  0.9147E-03  0.0000E+00  0.0000E+00  0.0000E+00  0.0000E+00  0.0000E+00  0.0000E+00  0.0000E+00  0.0000E+00  0.0000E+00  0.0000E+00
     -8.937  0.2191E-01  0.2191E-01  0.9777E-03  0.9777E-03  0.1089E-02  0.1089E-02  0.1009E-02  0.1009E-02  0.0000E+00  0.0000E+00  0.0000E+00  0.0000E+00  0.0000E+00  0.0000E+00  0.0000E+00  0.0000E+00  0.0000E+00  0.0000E+00
     -8.775  0.2257E-01  0.2257E-01  0.1078E-02  0.1078E-02  0.1172E-02  0.1172E-02  0.1107E-02  0.1107E-02  0.0000E+00  0.0000E+00  0.0000E+00  0.0000E+00  0.0000E+00  0.0000E+00  0.0000E+00  0.0000E+00  0.0000E+00  0.0000E+00
     -8.613  0.2326E-01  0.2326E-01  0.1179E-02  0.1179E-02  0.1257E-02  0.1257E-02  0.1205E-02  0.1205E-02  0.0000E+00  0.0000E+00  0.0000E+00  0.0000E+00  0.0000E+00  0.0000E+00  0.0000E+00  0.0000E+00  0.0000E+00  0.0000E+00
     -8.450  0.2403E-01  0.2403E-01  0.1279E-02  0.1279E-02  0.1342E-02  0.1342E-02  0.1303E-02  0.1303E-02  0.0000E+00  0.0000E+00  0.0000E+00  0.0000E+00  0.0000E+00  0.0000E+00  0.0000E+00  0.0000E+00  0.0000E+00  0.0000E+00
     -8.288  0.2474E-01  0.2474E-01  0.1381E-02  0.1381E-02  0.1429E-02  0.1429E-02  0.1403E-02  0.1403E-02  0.0000E+00  0.0000E+00  0.0000E+00  0.0000E+00  0.0000E+00  0.0000E+00  0.0000E+00  0.0000E+00  0.0000E+00  0.0000E+00
     -8.126  0.2527E-01  0.2527E-01  0.1485E-02  0.1485E-02  0.1533E-02  0.1533E-02  0.1505E-02  0.1505E-02  0.0000E+00  0.0000E+00  0.0000E+00  0.0000E+00  0.0000E+00  0.0000E+00  0.0000E+00  0.0000E+00  0.0000E+00  0.0000E+00
     -7.964  0.2583E-01  0.2583E-01  0.1590E-02  0.1590E-02  0.1649E-02  0.1649E-02  0.1612E-02  0.1612E-02  0.0000E+00  0.0000E+00  0.0000E+00  0.0000E+00  0.0000E+00  0.0000E+00  0.0000E+00  0.0000E+00  0.0000E+00  0.0000E+00
     -7.801  0.2640E-01  0.2640E-01  0.1699E-02  0.1699E-02  0.1759E-02  0.1759E-02  0.1724E-02  0.1724E-02  0.0000E+00  0.0000E+00  0.0000E+00  0.0000E+00  0.0000E+00  0.0000E+00  0.0000E+00  0.0000E+00  0.0000E+00  0.0000E+00
     -7.639  0.2690E-01  0.2690E-01  0.1819E-02  0.1819E-02  0.1868E-02  0.1868E-02  0.1840E-02  0.1840E-02  0.0000E+00  0.0000E+00  0.0000E+00  0.0000E+00  0.0000E+00  0.0000E+00  0.0000E+00  0.0000E+00  0.0000E+00  0.0000E+00
     -7.477  0.2745E-01  0.2745E-01  0.1935E-02  0.1935E-02  0.1977E-02  0.1977E-02  0.1956E-02  0.1956E-02  0.0000E+00  0.0000E+00  0.0000E+00  0.0000E+00  0.0000E+00  0.0000E+00  0.0000E+00  0.0000E+00  0.0000E+00  0.0000E+00
     -7.314  0.2805E-01  0.2805E-01  0.2051E-02  0.2051E-02  0.2081E-02  0.2081E-02  0.2074E-02  0.2074E-02  0.0000E+00  0.0000E+00  0.0000E+00  0.0000E+00  0.0000E+00  0.0000E+00  0.0000E+00  0.0000E+00  0.0000E+00  0.0000E+00
     -7.152  0.2869E-01  0.2869E-01  0.2168E-02  0.2168E-02  0.2194E-02  0.2194E-02  0.2194E-02  0.2194E-02  0.0000E+00  0.0000E+00  0.0000E+00  0.0000E+00  0.0000E+00  0.0000E+00  0.0000E+00  0.0000E+00  0.0000E+00  0.0000E+00
     -6.990  0.2932E-01  0.2932E-01  0.2287E-02  0.2287E-02  0.2326E-02  0.2326E-02  0.2316E-02  0.2316E-02  0.0000E+00  0.0000E+00  0.0000E+00  0.0000E+00  0.0000E+00  0.0000E+00  0.0000E+00  0.0000E+00  0.0000E+00  0.0000E+00
     -6.828  0.3000E-01  0.3000E-01  0.2409E-02  0.2409E-02  0.2455E-02  0.2455E-02  0.2440E-02  0.2440E-02  0.0000E+00  0.0000E+00  0.0000E+00  0.0000E+00  0.0000E+00  0.0000E+00  0.0000E+00  0.0000E+00  0.0000E+00  0.0000E+00
     -6.665  0.3076E-01  0.3076E-01  0.2532E-02  0.2532E-02  0.2584E-02  0.2584E-02  0.2569E-02  0.2569E-02  0.0000E+00  0.0000E+00  0.0000E+00  0.0000E+00  0.0000E+00  0.0000E+00  0.0000E+00  0.0000E+00  0.0000E+00  0.0000E+00
     -6.503  0.3178E-01  0.3178E-01  0.2668E-02  0.2668E-02  0.2728E-02  0.2728E-02  0.2718E-02  0.2718E-02  0.0000E+00  0.0000E+00  0.0000E+00  0.0000E+00  0.0000E+00  0.0000E+00  0.0000E+00  0.0000E+00  0.0000E+00  0.0000E+00
     -6.341  0.3295E-01  0.3295E-01  0.2819E-02  0.2819E-02  0.2873E-02  0.2873E-02  0.2880E-02  0.2880E-02  0.0000E+00  0.0000E+00  0.0000E+00  0.0000E+00  0.0000E+00  0.0000E+00  0.0000E+00  0.0000E+00  0.0000E+00  0.0000E+00
     -6.178  0.3444E-01  0.3444E-01  0.2980E-02  0.2980E-02  0.3017E-02  0.3017E-02  0.3073E-02  0.3073E-02  0.0000E+00  0.0000E+00  0.0000E+00  0.0000E+00  0.0000E+00  0.0000E+00  0.0000E+00  0.0000E+00  0.0000E+00  0.0000E+00
     -6.016  0.3611E-01  0.3611E-01  0.3150E-02  0.3150E-02  0.3174E-02  0.3174E-02  0.3293E-02  0.3293E-02  0.0000E+00  0.0000E+00  0.0000E+00  0.0000E+00  0.0000E+00  0.0000E+00  0.0000E+00  0.0000E+00  0.0000E+00  0.0000E+00
     -5.854  0.4105E-01  0.4105E-01  0.3554E-02  0.3554E-02  0.3369E-02  0.3369E-02  0.3945E-02  0.3945E-02  0.0000E+00  0.0000E+00  0.0000E+00  0.0000E+00  0.0000E+00  0.0000E+00  0.0000E+00  0.0000E+00  0.0000E+00  0.0000E+00
     -5.692  0.4097E-01  0.4097E-01  0.3598E-02  0.3598E-02  0.3552E-02  0.3552E-02  0.3917E-02  0.3917E-02  0.0000E+00  0.0000E+00  0.0000E+00  0.0000E+00  0.0000E+00  0.0000E+00  0.0000E+00  0.0000E+00  0.0000E+00  0.0000E+00