    4    4  100    2
  0.5717550E+01  0.2513094E-09  0.2513094E-09  0.4181402E-09  0.1500000E-16
   1.0000000000000000E-004
  CAR 
 unknown system                          
     16     96     16
 
  0.3742002E-15  0.3742002E-15  0.3742002E-15  0.8503401E-03
    1      -11.593026    -11.593021   1.000000   1.000000
    2       -5.267598     -5.267591   1.000000   1.000000
    3       -3.241605     -3.241603   1.000000   1.000000
    4        8.594299      8.594293   1.000000   1.000000
    5        8.594390      8.594385   1.000000   1.000000
    6       11.407899     11.407894   1.000000   1.000000
    7       12.118880     12.118874   1.000000   1.000000
    8       12.118984     12.118977   1.000000   1.000000
    9       17.242851     17.242846   0.000000   0.000000
   10       17.242948     17.242941   0.000000   0.000000
   11       17.787022     17.787017   0.000000   0.000000
   12       21.875684     21.875693   0.000000   0.000000
   13       22.421526     22.421517   0.000000   0.000000
   14       22.421648     22.421639   0.000000   0.000000
   15       29.593190     29.593206   0.000000   0.000000
   16       31.013037     31.013043   0.000000   0.000000
 
  0.7142857E-01  0.3742194E-15  0.3742002E-15  0.5102041E-02
    1      -11.454645    -11.454640   1.000000   1.000000
    2       -5.145020     -5.145014   1.000000   1.000000
    3       -3.107597     -3.107596   1.000000   1.000000
    4        7.905309      7.905304   1.000000   1.000000
    5        8.286761      8.286756   1.000000   1.000000
    6       11.193602     11.193598   1.000000   1.000000
    7       11.521289     11.521283   1.000000   1.000000
    8       11.845970     11.845964   1.000000   1.000000
    9       17.359434     17.359427   0.000000   0.000000
   10       17.640053     17.640047   0.000000   0.000000
   11       18.060721     18.060716   0.000000   0.000000
   12       22.271965     22.271973   0.000000   0.000000
   13       22.570619     22.570611   0.000000   0.000000
   14       22.898424     22.898416   0.000000   0.000000
   15       29.704245     29.704260   0.000000   0.000000
   16       30.344002     30.344002   0.000000   0.000000
 
  0.1428571E+00  0.3778240E-15  0.3742002E-15  0.5102041E-02
    1      -11.040363    -11.040357   1.000000   1.000000
    2       -4.777958     -4.777952   1.000000   1.000000
    3       -2.710251     -2.710250   1.000000   1.000000
    4        6.189184      6.189182   1.000000   1.000000
    5        7.546523      7.546519   1.000000   1.000000
    6       10.057614     10.057609   1.000000   1.000000
    7       10.599675     10.599671   1.000000   1.000000
    8       11.174250     11.174244   1.000000   1.000000
    9       17.475584     17.475579   0.000000   0.000000
   10       18.581339     18.581332   0.000000   0.000000
   11       18.645247     18.645241   0.000000   0.000000
   12       22.931471     22.931465   0.000000   0.000000
   13       23.216158     23.216162   0.000000   0.000000
   14       24.144865     24.144855   0.000000   0.000000
   15       28.306553     28.306553   0.000000   0.000000
   16       30.016455     30.016466   0.000000   0.000000
 
  0.2142857E+00  0.3806259E-15  0.3742002E-15  0.5102041E-02
    1      -10.353193    -10.353188   1.000000   1.000000
    2       -4.168578     -4.168572   1.000000   1.000000
    3       -2.067116     -2.067115   1.000000   1.000000
    4        4.010314      4.010313   1.000000   1.000000
    5        6.681189      6.681185   1.000000   1.000000
    6        8.202542      8.202540   1.000000   1.000000
    7        9.678875      9.678871   1.000000   1.000000
    8       10.372017     10.372011   1.000000   1.000000
    9       17.428037     17.428036   0.000000   0.000000
   10       19.283360     19.283355   0.000000   0.000000
   11       19.589451     19.589444   0.000000   0.000000
   12       23.397543     23.397540   0.000000   0.000000
   13       23.502067     23.502067   0.000000   0.000000
   14       25.824440     25.824429   0.000000   0.000000
   15       27.440190     27.440191   0.000000   0.000000
   16       30.146905     30.146901   0.000000   0.000000
 
  0.2857143E+00  0.3671018E-15  0.3742002E-15  0.5102041E-02
    1       -9.399638     -9.399633   1.000000   1.000000
    2       -3.321346     -3.321341   1.000000   1.000000
    3       -1.236339     -1.236338   1.000000   1.000000
    4        1.745892      1.745892   1.000000   1.000000
    5        5.890245      5.890241   1.000000   1.000000
    6        6.219177      6.219176   1.000000   1.000000
    7        8.484429      8.484425   1.000000   1.000000
    8        9.625876      9.625870   1.000000   1.000000
    9       17.271138     17.271138   0.000000   0.000000
   10       19.908030     19.908025   0.000000   0.000000
   11       20.301630     20.301624   0.000000   0.000000
   12       22.380266     22.380264   0.000000   0.000000
   13       23.867650     23.867652   0.000000   0.000000
   14       27.601678     27.601665   0.000000   0.000000
   15       28.683195     28.683194   0.000000   0.000000
   16       29.223483     29.223476   0.000000   0.000000
 
  0.3571429E+00  0.3813174E-15  0.3742002E-15  0.5102041E-02
    1       -8.193984     -8.193979   1.000000   1.000000
    2       -2.245567     -2.245563   1.000000   1.000000
    3       -0.988258     -0.988255   1.000000   1.000000
    4        0.294613      0.294611   1.000000   1.000000
    5        4.257641      4.257641   1.000000   1.000000
    6        5.278273      5.278270   1.000000   1.000000
    7        7.125882      7.125879   1.000000   1.000000
    8        9.043733      9.043728   1.000000   1.000000
    9       17.082641     17.082643   0.000000   0.000000
   10       20.485645     20.485640   0.000000   0.000000
   11       20.649229     20.649223   0.000000   0.000000
   12       21.244749     21.244747   0.000000   0.000000
   13       24.323187     24.323192   0.000000   0.000000
   14       28.103497     28.103491   0.000000   0.000000
   15       29.166605     29.166591   0.000000   0.000000
   16       30.394376     30.394373   0.000000   0.000000
 
  0.4285714E+00  0.3841193E-15  0.3742002E-15  0.5102041E-02
    1       -6.783965     -6.783960   1.000000   1.000000
    2       -2.798072     -2.798070   1.000000   1.000000
    3       -0.968078     -0.968073   1.000000   1.000000
    4        1.108380      1.108379   1.000000   1.000000
    5        2.422835      2.422837   1.000000   1.000000
    6        4.895187      4.895183   1.000000   1.000000
    7        5.829566      5.829564   1.000000   1.000000
    8        8.677967      8.677961   1.000000   1.000000
    9       16.929251     16.929253   0.000000   0.000000
   10       20.550247     20.550244   0.000000   0.000000
   11       20.764590     20.764584   0.000000   0.000000
   12       20.928278     20.928273   0.000000   0.000000
   13       24.792228     24.792234   0.000000   0.000000
   14       27.082779     27.082774   0.000000   0.000000
   15       30.235868     30.235854   0.000000   0.000000
   16       31.319618     31.319616   0.000000   0.000000
 
  0.5000000E+00  0.3542694E-15  0.3742002E-15  0.2551020E-02
    1       -5.685848     -5.685842   1.000000   1.000000
    2       -4.097949     -4.097947   1.000000   1.000000
    3        0.134417      0.134422   1.000000   1.000000
    4        1.130231      1.130231   1.000000   1.000000
    5        1.652798      1.652798   1.000000   1.000000
    6        4.764940      4.764936   1.000000   1.000000
    7        5.179878      5.179876   1.000000   1.000000
    8        8.552743      8.552738   1.000000   1.000000
    9       16.869106     16.869108   0.000000   0.000000
   10       20.323229     20.323226   0.000000   0.000000
   11       20.784911     20.784905   0.000000   0.000000
   12       21.096645     21.096641   0.000000   0.000000
   13       25.092414     25.092420   0.000000   0.000000
   14       26.562150     26.562145   0.000000   0.000000
   15       30.595809     30.595793   0.000000   0.000000
   16       31.587310     31.587308   0.000000   0.000000
 
  0.7142857E-01  0.7142857E-01  0.3742002E-15  0.5102041E-02
    1      -11.178309    -11.178304   1.000000   1.000000
    2       -4.900199     -4.900193   1.000000   1.000000
    3       -2.841846     -2.841845   1.000000   1.000000
    4        6.813665      6.813662   1.000000   1.000000
    5        7.639176      7.639172   1.000000   1.000000
    6       10.568998     10.568993   1.000000   1.000000
    7       10.807360     10.807356   1.000000   1.000000
    8       11.300086     11.300080   1.000000   1.000000
    9       17.695995     17.695989   0.000000   0.000000
   10       18.085608     18.085602   0.000000   0.000000
   11       18.497737     18.497732   0.000000   0.000000
   12       22.867831     22.867824   0.000000   0.000000
   13       22.940001     22.940006   0.000000   0.000000
   14       23.705533     23.705524   0.000000   0.000000
   15       29.271318     29.271316   0.000000   0.000000
   16       29.922684     29.922696   0.000000   0.000000
 
  0.1428571E+00  0.7142857E-01  0.3742002E-15  0.1020408E-01
    1      -10.627538    -10.627532   1.000000   1.000000
    2       -4.411983     -4.411977   1.000000   1.000000
    3       -2.320759     -2.320758   1.000000   1.000000
    4        5.020890      5.020889   1.000000   1.000000
    5        6.651287      6.651283   1.000000   1.000000
    6        9.038920      9.038916   1.000000   1.000000
    7       10.090622     10.090618   1.000000   1.000000
    8       10.437672     10.437667   1.000000   1.000000
    9       17.918697     17.918694   0.000000   0.000000
   10       18.893244     18.893238   0.000000   0.000000
   11       19.149826     19.149821   0.000000   0.000000
   12       23.380389     23.380383   0.000000   0.000000
   13       23.592087     23.592088   0.000000   0.000000
   14       25.020258     25.020249   0.000000   0.000000
   15       27.790915     27.790914   0.000000   0.000000
   16       29.726405     29.726405   0.000000   0.000000
 
  0.2142857E+00  0.7142857E-01  0.3742002E-15  0.1020408E-01
    1       -9.806944     -9.806939   1.000000   1.000000
    2       -3.683623     -3.683618   1.000000   1.000000
    3       -1.575580     -1.575579   1.000000   1.000000
    4        2.871876      2.871876   1.000000   1.000000
    5        5.720536      5.720532   1.000000   1.000000
    6        7.199132      7.199130   1.000000   1.000000
    7        9.067917      9.067913   1.000000   1.000000
    8        9.586192      9.586187   1.000000   1.000000
    9       17.848092     17.848090   0.000000   0.000000
   10       19.688256     19.688250   0.000000   0.000000
   11       19.849805     19.849800   0.000000   0.000000
   12       23.164097     23.164096   0.000000   0.000000
   13       23.918400     23.918398   0.000000   0.000000
   14       26.629729     26.629720   0.000000   0.000000
   15       27.772896     27.772894   0.000000   0.000000
   16       29.730674     29.730665   0.000000   0.000000
 
  0.2857143E+00  0.7142857E-01  0.3742002E-15  0.1020408E-01
    1       -8.726108     -8.726103   1.000000   1.000000
    2       -2.721804     -2.721799   1.000000   1.000000
    3       -0.778152     -0.778150   1.000000   1.000000
    4        0.796092      0.796091   1.000000   1.000000
    5        4.973291      4.973288   1.000000   1.000000
    6        5.265208      5.265208   1.000000   1.000000
    7        7.805073      7.805070   1.000000   1.000000
    8        8.884676      8.884671   1.000000   1.000000
    9       17.714342     17.714342   0.000000   0.000000
   10       19.750234     19.750229   0.000000   0.000000
   11       20.536274     20.536269   0.000000   0.000000
   12       22.546092     22.546089   0.000000   0.000000
   13       24.381318     24.381321   0.000000   0.000000
   14       28.268504     28.268493   0.000000   0.000000
   15       28.674989     28.674981   0.000000   0.000000
   16       29.079634     29.079631   0.000000   0.000000
 
  0.3571429E+00  0.7142857E-01  0.3742002E-15  0.1020408E-01
    1       -7.409355     -7.409350   1.000000   1.000000
    2       -1.780880     -1.780877   1.000000   1.000000
    3       -1.541572     -1.541567   1.000000   1.000000
    4        0.730726      0.730725   1.000000   1.000000
    5        3.381046      3.381046   1.000000   1.000000
    6        4.464409      4.464406   1.000000   1.000000
    7        6.452608      6.452605   1.000000   1.000000
    8        8.393882      8.393877   1.000000   1.000000
    9       17.629617     17.629618   0.000000   0.000000
   10       19.193607     19.193604   0.000000   0.000000
   11       21.146669     21.146663   0.000000   0.000000
   12       22.442597     22.442592   0.000000   0.000000
   13       24.798533     24.798539   0.000000   0.000000
   14       27.544757     27.544752   0.000000   0.000000
   15       29.702120     29.702106   0.000000   0.000000
   16       30.792946     30.792940   0.000000   0.000000
 
  0.4285714E+00  0.7142857E-01  0.3742002E-15  0.1020408E-01
    1       -5.984413     -5.984408   1.000000   1.000000
    2       -3.571038     -3.571035   1.000000   1.000000
    3       -0.214489     -0.214485   1.000000   1.000000
    4        1.573931      1.573930   1.000000   1.000000
    5        1.686861      1.686862   1.000000   1.000000
    6        4.234261      4.234258   1.000000   1.000000
    7        5.354714      5.354712   1.000000   1.000000
    8        8.141443      8.141439   1.000000   1.000000
    9       17.623611     17.623613   0.000000   0.000000
   10       18.733111     18.733108   0.000000   0.000000
   11       21.532814     21.532809   0.000000   0.000000
   12       22.469761     22.469756   0.000000   0.000000
   13       25.195019     25.195025   0.000000   0.000000
   14       26.697654     26.697650   0.000000   0.000000
   15       30.483335     30.483320   0.000000   0.000000
   16       31.488528     31.488526   0.000000   0.000000
 
  0.1428571E+00  0.1428571E+00  0.3742002E-15  0.5102041E-02
    1       -9.943208     -9.943203   1.000000   1.000000
    2       -3.804759     -3.804754   1.000000   1.000000
    3       -1.693937     -1.693936   1.000000   1.000000
    4        3.581533      3.581533   1.000000   1.000000
    5        5.250061      5.250058   1.000000   1.000000
    6        7.767787      7.767785   1.000000   1.000000
    7        9.289248      9.289243   1.000000   1.000000
    8        9.311769      9.311765   1.000000   1.000000
    9       18.669124     18.669119   0.000000   0.000000
   10       19.037032     19.037028   0.000000   0.000000
   11       19.923880     19.923875   0.000000   0.000000
   12       23.431815     23.431816   0.000000   0.000000
   13       24.196679     24.196674   0.000000   0.000000
   14       25.986465     25.986460   0.000000   0.000000
   15       27.366728     27.366726   0.000000   0.000000
   16       29.528556     29.528555   0.000000   0.000000
 
  0.2142857E+00  0.1428571E+00  0.3742002E-15  0.1020408E-01
    1       -8.994413     -8.994408   1.000000   1.000000
    2       -2.961604     -2.961599   1.000000   1.000000
    3       -0.904037     -0.904035   1.000000   1.000000
    4        1.810025      1.810025   1.000000   1.000000
    5        4.083863      4.083861   1.000000   1.000000
    6        6.197568      6.197567   1.000000   1.000000
    7        8.256560      8.256556   1.000000   1.000000
    8        8.258027      8.258023   1.000000   1.000000
    9       18.226606     18.226601   0.000000   0.000000
   10       19.852230     19.852227   0.000000   0.000000
   11       20.789642     20.789636   0.000000   0.000000
   12       23.182920     23.182919   0.000000   0.000000
   13       24.987074     24.987071   0.000000   0.000000
   14       27.189491     27.189486   0.000000   0.000000
   15       27.422852     27.422850   0.000000   0.000000
   16       29.069753     29.069745   0.000000   0.000000
 
  0.2857143E+00  0.1428571E+00  0.3742002E-15  0.1020408E-01
    1       -7.796563     -7.796558   1.000000   1.000000
    2       -1.893275     -1.893270   1.000000   1.000000
    3       -0.797385     -0.797381   1.000000   1.000000
    4        0.676643      0.676641   1.000000   1.000000
    5        3.337659      3.337657   1.000000   1.000000
    6        4.437847      4.437847   1.000000   1.000000
    7        7.008307      7.008304   1.000000   1.000000
    8        7.545136      7.545132   1.000000   1.000000
    9       17.633806     17.633803   0.000000   0.000000
   10       19.908480     19.908479   0.000000   0.000000
   11       21.650441     21.650435   0.000000   0.000000
   12       23.548457     23.548454   0.000000   0.000000
   13       25.469563     25.469564   0.000000   0.000000
   14       27.959950     27.959945   0.000000   0.000000
   15       28.529367     28.529364   0.000000   0.000000
   16       28.740345     28.740335   0.000000   0.000000
 
  0.3571429E+00  0.1428571E+00  0.3742002E-15  0.1020408E-01
    1       -6.398455     -6.398450   1.000000   1.000000
    2       -2.511388     -2.511384   1.000000   1.000000
    3       -0.629757     -0.629753   1.000000   1.000000
    4        1.413180      1.413179   1.000000   1.000000
    5        2.697674      2.697676   1.000000   1.000000
    6        2.991773      2.991771   1.000000   1.000000
    7        5.757302      5.757300   1.000000   1.000000
    8        7.130071      7.130067   1.000000   1.000000
    9       17.170426     17.170423   0.000000   0.000000
   10       19.668973     19.668973   0.000000   0.000000
   11       22.396596     22.396589   0.000000   0.000000
   12       24.037937     24.037932   0.000000   0.000000
   13       25.758218     25.758222   0.000000   0.000000
   14       26.997954     26.997949   0.000000   0.000000
   15       30.028812     30.028800   0.000000   0.000000
   16       30.294532     30.294526   0.000000   0.000000
 
  0.4285714E+00  0.1428571E+00  0.3742002E-15  0.5102041E-02
    1       -5.308292     -5.308287   1.000000   1.000000
    2       -3.776975     -3.776972   1.000000   1.000000
    3        0.447229      0.447234   1.000000   1.000000
    4        1.452729      1.452730   1.000000   1.000000
    5        1.833188      1.833188   1.000000   1.000000
    6        3.020652      3.020649   1.000000   1.000000
    7        5.076801      5.076799   1.000000   1.000000
    8        6.992492      6.992489   1.000000   1.000000
    9       16.997435     16.997432   0.000000   0.000000
   10       19.561555     19.561556   0.000000   0.000000
   11       22.724450     22.724443   0.000000   0.000000
   12       24.224702     24.224697   0.000000   0.000000
   13       25.951942     25.951947   0.000000   0.000000
   14       26.462995     26.462991   0.000000   0.000000
   15       30.513059     30.513045   0.000000   0.000000
   16       31.368679     31.368677   0.000000   0.000000
 
  0.2142857E+00  0.2142857E+00  0.3742002E-15  0.5102041E-02
    1       -7.927126     -7.927121   1.000000   1.000000
    2       -2.011442     -2.011438   1.000000   1.000000
    3       -0.437522     -0.437518   1.000000   1.000000
    4        1.042828      1.042827   1.000000   1.000000
    5        2.491816      2.491814   1.000000   1.000000
    6        5.108409      5.108409   1.000000   1.000000
    7        6.906577      6.906574   1.000000   1.000000
    8        7.236069      7.236067   1.000000   1.000000
    9       17.264804     17.264800   0.000000   0.000000
   10       21.268860     21.268856   0.000000   0.000000
   11       21.852042     21.852037   0.000000   0.000000
   12       23.495450     23.495449   0.000000   0.000000
   13       26.377367     26.377362   0.000000   0.000000
   14       27.396642     27.396640   0.000000   0.000000
   15       27.703700     27.703698   0.000000   0.000000
   16       28.211521     28.211514   0.000000   0.000000
 
  0.2857143E+00  0.2142857E+00  0.3742002E-15  0.1020408E-01
    1       -6.632308     -6.632303   1.000000   1.000000
    2       -1.456682     -1.456678   1.000000   1.000000
    3       -0.852924     -0.852920   1.000000   1.000000
    4        1.274742      1.274741   1.000000   1.000000
    5        1.782175      1.782173   1.000000   1.000000
    6        3.727737      3.727738   1.000000   1.000000
    7        6.023141      6.023138   1.000000   1.000000
    8        6.086224      6.086221   1.000000   1.000000
    9       16.313209     16.313206   0.000000   0.000000
   10       22.045136     22.045134   0.000000   0.000000
   11       22.888739     22.888734   0.000000   0.000000
   12       24.451687     24.451684   0.000000   0.000000
   13       27.117401     27.117399   0.000000   0.000000
   14       27.244720     27.244716   0.000000   0.000000
   15       28.231441     28.231438   0.000000   0.000000
   16       28.945415     28.945409   0.000000   0.000000
 
  0.3571429E+00  0.2142857E+00  0.3742002E-15  0.1020408E-01
    1       -5.232865     -5.232860   1.000000   1.000000
    2       -3.026872     -3.026868   1.000000   1.000000
    3        0.433041      0.433045   1.000000   1.000000
    4        0.980818      0.980818   1.000000   1.000000
    5        2.240805      2.240806   1.000000   1.000000
    6        2.578772      2.578770   1.000000   1.000000
    7        5.046277      5.046275   1.000000   1.000000
    8        5.643589      5.643586   1.000000   1.000000
    9       15.782868     15.782865   0.000000   0.000000
   10       22.119202     22.119200   0.000000   0.000000
   11       23.720133     23.720126   0.000000   0.000000
   12       25.462090     25.462084   0.000000   0.000000
   13       26.392777     26.392772   0.000000   0.000000
   14       27.301199     27.301201   0.000000   0.000000
   15       29.745180     29.745173   0.000000   0.000000
   16       30.245252     30.245241   0.000000   0.000000
 
  0.2857143E+00  0.2857143E+00  0.3742002E-15  0.5102041E-02
    1       -5.287684     -5.287680   1.000000   1.000000
    2       -2.354176     -2.354171   1.000000   1.000000
    3        0.161304      0.161302   1.000000   1.000000
    4        0.356111      0.356115   1.000000   1.000000
    5        2.584678      2.584676   1.000000   1.000000
    6        2.948260      2.948262   1.000000   1.000000
    7        4.799734      4.799731   1.000000   1.000000
    8        5.085186      5.085184   1.000000   1.000000
    9       15.334711     15.334709   0.000000   0.000000
   10       24.041183     24.041178   0.000000   0.000000
   11       24.336645     24.336641   0.000000   0.000000
   12       25.065847     25.065843   0.000000   0.000000
   13       26.407059     26.407054   0.000000   0.000000
   14       28.490081     28.490076   0.000000   0.000000
   15       29.030151     29.030148   0.000000   0.000000
   16       29.116447     29.116441   0.000000   0.000000
 
  0.3571429E+00  0.2857143E+00  0.3742002E-15  0.5102041E-02
    1       -4.183483     -4.183478   1.000000   1.000000
    2       -3.306037     -3.306033   1.000000   1.000000
    3       -0.300521     -0.300522   1.000000   1.000000
    4        1.386197      1.386201   1.000000   1.000000
    5        2.068933      2.068935   1.000000   1.000000
    6        3.342922      3.342920   1.000000   1.000000
    7        4.345822      4.345821   1.000000   1.000000
    8        4.372249      4.372246   1.000000   1.000000
    9       14.984094     14.984092   0.000000   0.000000
   10       24.771537     24.771532   0.000000   0.000000
   11       24.835407     24.835403   0.000000   0.000000
   12       25.783052     25.783048   0.000000   0.000000
   13       26.254373     26.254367   0.000000   0.000000
   14       28.497233     28.497229   0.000000   0.000000
   15       29.094531     29.094528   0.000000   0.000000
   16       30.236379     30.236370   0.000000   0.000000
 
  0.3742002E-15  0.3742002E-15  0.1666667E+00  0.1700680E-02
    1      -11.388924    -11.388919   1.000000   1.000000
    2       -6.654947     -6.654942   1.000000   1.000000
    3       -1.508046     -1.508044   1.000000   1.000000
    4        8.759776      8.759770   1.000000   1.000000
    5        8.759866      8.759862   1.000000   1.000000
    6       10.088564     10.088560   1.000000   1.000000
    7       11.739247     11.739240   1.000000   1.000000
    8       11.739345     11.739340   1.000000   1.000000
    9       17.649025     17.649020   0.000000   0.000000
   10       17.649120     17.649113   0.000000   0.000000
   11       18.548845     18.548840   0.000000   0.000000
   12       21.763392     21.763400   0.000000   0.000000
   13       22.023844     22.023836   0.000000   0.000000
   14       22.023963     22.023955   0.000000   0.000000
   15       29.667422     29.667437   0.000000   0.000000
   16       31.157890     31.157896   0.000000   0.000000
 
  0.7142857E-01  0.3742194E-15  0.1666667E+00  0.1020408E-01
    1      -11.250726    -11.250720   1.000000   1.000000
    2       -6.524742     -6.524737   1.000000   1.000000
    3       -1.385026     -1.385025   1.000000   1.000000
    4        8.072668      8.072664   1.000000   1.000000
    5        8.454617      8.454613   1.000000   1.000000
    6        9.986902      9.986898   1.000000   1.000000
    7       11.138541     11.138535   1.000000   1.000000
    8       11.468676     11.468670   1.000000   1.000000
    9       17.669361     17.669355   0.000000   0.000000
   10       18.051635     18.051629   0.000000   0.000000
   11       18.792469     18.792463   0.000000   0.000000
   12       22.022402     22.022401   0.000000   0.000000
   13       22.281121     22.281121   0.000000   0.000000
   14       22.500034     22.500026   0.000000   0.000000
   15       29.701178     29.701192   0.000000   0.000000
   16       30.767961     30.767962   0.000000   0.000000
 
  0.1428571E+00  0.3778240E-15  0.1666667E+00  0.1020408E-01
    1      -10.837000    -10.836994   1.000000   1.000000
    2       -6.135431     -6.135426   1.000000   1.000000
    3       -1.021054     -1.021052   1.000000   1.000000
    4        6.362426      6.362423   1.000000   1.000000
    5        7.719206      7.719201   1.000000   1.000000
    6        9.402263      9.402260   1.000000   1.000000
    7        9.942721      9.942716   1.000000   1.000000
    8       10.798699     10.798693   1.000000   1.000000
    9       17.604556     17.604553   0.000000   0.000000
   10       19.023437     19.023431   0.000000   0.000000
   11       19.175094     19.175088   0.000000   0.000000
   12       22.334309     22.334305   0.000000   0.000000
   13       23.283599     23.283601   0.000000   0.000000
   14       23.741053     23.741044   0.000000   0.000000
   15       28.788376     28.788375   0.000000   0.000000
   16       29.907363     29.907371   0.000000   0.000000
 
  0.2142857E+00  0.3806259E-15  0.1666667E+00  0.1020408E-01
    1      -10.150899    -10.150894   1.000000   1.000000
    2       -5.491258     -5.491253   1.000000   1.000000
    3       -0.437020     -0.437018   1.000000   1.000000
    4        4.197073      4.197071   1.000000   1.000000
    5        6.857756      6.857752   1.000000   1.000000
    6        7.593045      7.593043   1.000000   1.000000
    7        9.329035      9.329031   1.000000   1.000000
    8        9.996143      9.996137   1.000000   1.000000
    9       17.444197     17.444196   0.000000   0.000000
   10       19.376094     19.376090   0.000000   0.000000
   11       20.094090     20.094083   0.000000   0.000000
   12       22.344704     22.344703   0.000000   0.000000
   13       24.424782     24.424780   0.000000   0.000000
   14       25.397042     25.397031   0.000000   0.000000
   15       27.450823     27.450821   0.000000   0.000000
   16       29.649957     29.649958   0.000000   0.000000
 
  0.2857143E+00  0.3671018E-15  0.1666667E+00  0.1020408E-01
    1       -9.198892     -9.198887   1.000000   1.000000
    2       -4.601127     -4.601122   1.000000   1.000000
    3        0.258614      0.258616   1.000000   1.000000
    4        2.001227      2.001226   1.000000   1.000000
    5        5.550952      5.550952   1.000000   1.000000
    6        6.069825      6.069821   1.000000   1.000000
    7        8.551557      8.551553   1.000000   1.000000
    8        9.250264      9.250258   1.000000   1.000000
    9       17.295177     17.295177   0.000000   0.000000
   10       19.506150     19.506146   0.000000   0.000000
   11       20.887545     20.887538   0.000000   0.000000
   12       21.624728     21.624729   0.000000   0.000000
   13       25.141598     25.141595   0.000000   0.000000
   14       26.828905     26.828901   0.000000   0.000000
   15       27.123571     27.123559   0.000000   0.000000
   16       30.013078     30.013076   0.000000   0.000000
 
  0.3571429E+00  0.3813174E-15  0.1666667E+00  0.1020408E-01
    1       -7.995581     -7.995576   1.000000   1.000000
    2       -3.486737     -3.486732   1.000000   1.000000
    3       -0.571981     -0.571978   1.000000   1.000000
    4        1.523347      1.523347   1.000000   1.000000
    5        3.563678      3.563679   1.000000   1.000000
    6        5.459313      5.459310   1.000000   1.000000
    7        7.548920      7.548917   1.000000   1.000000
    8        8.667264      8.667259   1.000000   1.000000
    9       17.173576     17.173577   0.000000   0.000000
   10       19.699020     19.699017   0.000000   0.000000
   11       20.741149     20.741149   0.000000   0.000000
   12       21.304629     21.304622   0.000000   0.000000
   13       25.460179     25.460180   0.000000   0.000000
   14       26.025036     26.025032   0.000000   0.000000
   15       28.607794     28.607781   0.000000   0.000000
   16       31.451331     31.451325   0.000000   0.000000
 
  0.4285714E+00  0.3841193E-15  0.1666667E+00  0.1020408E-01