       N       E                     dE             d eps       ncg     rms          rms(c)
DAV:   1    -0.518866739576E+02   -0.51887E+02   -0.78621E+03  6384   0.809E+02
DAV:   2    -0.106304937761E+03   -0.54418E+02   -0.50690E+02  9088   0.186E+02
DAV:   3    -0.108130187385E+03   -0.18252E+01   -0.18210E+01  6416   0.305E+01
DAV:   4    -0.108140763793E+03   -0.10576E-01   -0.10576E-01  7464   0.293E+00
DAV:   5    -0.108140848355E+03   -0.84562E-04   -0.84562E-04  6408   0.231E-01    0.391E+01
DAV:   6    -0.562283097356E+02    0.51913E+02   -0.25599E+01  6376   0.308E+01    0.215E+01
DAV:   7    -0.360840950693E+02    0.20144E+02   -0.38012E+01  7488   0.370E+01    0.320E+00
DAV:   8    -0.362124767419E+02   -0.12838E+00   -0.12113E+00  6720   0.687E+00    0.140E+00
DAV:   9    -0.362620719929E+02   -0.49595E-01   -0.11022E-01  6888   0.331E+00    0.301E-01
DAV:  10    -0.362748246546E+02   -0.12753E-01   -0.16505E-02  6848   0.131E+00    0.938E-02
DAV:  11    -0.362756522202E+02   -0.82757E-03   -0.65257E-04  7600   0.276E-01    0.503E-02
DAV:  12    -0.362760333245E+02   -0.38110E-03   -0.19808E-04  6840   0.143E-01    0.103E-02
DAV:  13    -0.362760498689E+02   -0.16544E-04   -0.12283E-05  8000   0.332E-02    0.478E-03
DAV:  14    -0.362760510306E+02   -0.11617E-05   -0.97384E-07  5496   0.103E-02    0.321E-03
DAV:  15    -0.362760517395E+02   -0.70892E-06   -0.64322E-07  4560   0.678E-03
   1 F= -.25570214E+02 E0= -.25570214E+02  d E =-.255702E+02  mag=     0.0000
       N       E                     dE             d eps       ncg     rms          rms(c)
DAV:   1    -0.362795923403E+02   -0.35413E-02   -0.74029E-02  7480   0.213E+00    0.215E-01
DAV:   2    -0.362787409538E+02    0.85139E-03   -0.13038E-03  6912   0.235E-01    0.117E-01
DAV:   3    -0.362783647906E+02    0.37616E-03   -0.56122E-04  7368   0.148E-01    0.729E-03
DAV:   4    -0.362783636753E+02    0.11153E-05   -0.61215E-06  6912   0.179E-02    0.289E-03
DAV:   5    -0.362783637991E+02   -0.12383E-06   -0.27523E-07  4392   0.467E-03
   2 F= -.25703348E+02 E0= -.25703348E+02  d E =-.133134E+00  mag=    -0.0000
       N       E                     dE             d eps       ncg     rms          rms(c)
DAV:   1    -0.362335290693E+02    0.44835E-01   -0.67907E-01  7488   0.654E+00    0.652E-01
DAV:   2    -0.362258500316E+02    0.76790E-02   -0.12511E-02  6920   0.730E-01    0.353E-01
DAV:   3    -0.362224296102E+02    0.34204E-02   -0.49299E-03  7440   0.444E-01    0.232E-02
DAV:   4    -0.362224140259E+02    0.15584E-04   -0.55555E-05  6928   0.549E-02    0.897E-03
DAV:   5    -0.362224115796E+02    0.24463E-05   -0.29708E-06  7520   0.147E-02    0.863E-04
DAV:   6    -0.362224115367E+02    0.42837E-07   -0.76361E-08  3640   0.205E-03
   3 F= -.26033458E+02 E0= -.26033458E+02  d E =-.463244E+00  mag=     0.0000
       N       E                     dE             d eps       ncg     rms          rms(c)
DAV:   1    -0.358437922277E+02    0.37862E+00   -0.28297E+00  7696   0.137E+01    0.133E+00
DAV:   2    -0.358130338868E+02    0.30758E-01   -0.55795E-02  6872   0.155E+00    0.720E-01
DAV:   3    -0.357991541427E+02    0.13880E-01   -0.18933E-02  7616   0.896E-01    0.510E-02
DAV:   4    -0.357990806164E+02    0.73526E-04   -0.22975E-04  6944   0.114E-01    0.192E-02
DAV:   5    -0.357990668204E+02    0.13796E-04   -0.14262E-05  7648   0.318E-02    0.205E-03
DAV:   6    -0.357990665704E+02    0.25003E-06   -0.42571E-07  4736   0.481E-03
   4 F= -.26353819E+02 E0= -.26353819E+02  d E =-.783605E+00  mag=     0.0000
       N       E                     dE             d eps       ncg     rms          rms(c)
DAV:   1    -0.356942919515E+02    0.10477E+00   -0.67061E-02  7824   0.212E+00    0.203E-01
DAV:   2    -0.356935526560E+02    0.73930E-03   -0.11046E-03  6904   0.228E-01    0.111E-01
DAV:   3    -0.356932262136E+02    0.32644E-03   -0.45276E-04  7776   0.139E-01    0.722E-03
DAV:   4    -0.356932256302E+02    0.58337E-06   -0.56393E-06  6800   0.177E-02
   5 F= -.26359339E+02 E0= -.26359339E+02  d E =-.789124E+00  mag=     0.0000
       N       E                     dE             d eps       ncg     rms          rms(c)
DAV:   1    -0.356931944398E+02    0.31774E-04   -0.52477E-03  6448   0.532E-01    0.107E-02
DAV:   2    -0.356931970248E+02   -0.25850E-05   -0.41962E-05  8136   0.479E-02    0.734E-03
DAV:   3    -0.356931962148E+02    0.81005E-06   -0.15660E-06  6544   0.116E-02
   6 F= -.26359813E+02 E0= -.26359813E+02  d E =-.474313E-03  mag=    -0.0000
       N       E                     dE             d eps       ncg     rms          rms(c)
DAV:   1    -0.356926545672E+02    0.54246E-03   -0.14714E-02  6512   0.890E-01    0.181E-02
DAV:   2    -0.356926620316E+02   -0.74644E-05   -0.11782E-04  8040   0.802E-02    0.124E-02
DAV:   3    -0.356926599972E+02    0.20345E-05   -0.44571E-06  7088   0.194E-02    0.246E-03
DAV:   4    -0.356926599338E+02    0.63418E-07   -0.56112E-07  4648   0.632E-03
   7 F= -.26360119E+02 E0= -.26360119E+02  d E =-.780437E-03  mag=    -0.0000
       N       E                     dE             d eps       ncg     rms          rms(c)
DAV:   1    -0.356951402898E+02   -0.24803E-02   -0.23627E-04  7816   0.119E-01    0.109E-02
DAV:   2    -0.356951376653E+02    0.26245E-05   -0.62663E-06  7584   0.187E-02    0.641E-03
DAV:   3    -0.356951361143E+02    0.15510E-05   -0.22350E-06  7376   0.124E-02    0.821E-04
DAV:   4    -0.356951361598E+02   -0.45506E-07   -0.17341E-07  3280   0.298E-03
   8 F= -.26360165E+02 E0= -.26360165E+02  d E =-.462668E-04  mag=    -0.0000
       N       E                     dE             d eps       ncg     rms          rms(c)
DAV:   1    -0.356994982761E+02   -0.43622E-02   -0.75347E-04  7808   0.213E-01    0.195E-02
DAV:   2    -0.356994901604E+02    0.81156E-05   -0.20059E-05  7600   0.335E-02    0.115E-02
DAV:   3    -0.356994856893E+02    0.44711E-05   -0.70921E-06  8048   0.220E-02    0.109E-03
DAV:   4    -0.356994856973E+02   -0.80360E-08   -0.51823E-07  3456   0.505E-03
   9 F= -.26360198E+02 E0= -.26360198E+02  d E =-.788827E-04  mag=    -0.0000
