 vasp.5.4.4.18Apr17-6-g9f103f2a35 (build Jul  5 2023 12:24:19) complex           
 executed on NVIDIA22.7_CrayMPICH date 2023.10.16  23:31:55
 running on   16 total cores
 distrk:  each k-point on   16 cores,    1 groups
 distr:  one band on NCORES_PER_BAND=   4 cores,    4 groups


--------------------------------------------------------------------------------------------------------


 INCAR:
 POTCAR:   PAW_PBE C 08Apr2002                    
 POTCAR:   PAW_PBE C 08Apr2002                    
  local pseudopotential read in
  atomic valenz-charges read in
  non local Contribution for L=            0  read in
    real space projection operators read in
  non local Contribution for L=            0  read in
    real space projection operators read in
  non local Contribution for L=            1  read in
    real space projection operators read in
  non local Contribution for L=            1  read in
    real space projection operators read in
    PAW grid and wavefunctions read in
 
   number of l-projection  operators is LMAX  =            4
   number of lm-projection operators is LMMAX =            8
 
 PAW_PBE C 08Apr2002                    :
 energy of atom  1       EATOM= -147.1560
 kinetic energy error for atom=    0.0288 (will be added to EATOM!!)
 
 
 POSCAR: C4                                      
  positions in direct lattice
  No initial velocities read in
 exchange correlation table for  LEXCH =        8
   RHO(1)=    0.500       N(1)  =     2000
   RHO(2)=  100.500       N(2)  =     4000
 


--------------------------------------------------------------------------------------------------------


 ion  position               nearest neighbor table
   1  0.333  0.667  0.937-   3 1.54   3 1.54   3 1.54   4 1.57
   2  0.667  0.333  0.437-   4 1.54   4 1.54   4 1.54   3 1.57
   3  0.667  0.333  0.063-   1 1.54   1 1.54   1 1.54   2 1.57
   4  0.333  0.667  0.563-   2 1.54   2 1.54   2 1.54   1 1.57
 
  LATTYP: Found a hexagonal cell.
 ALAT       =     2.5130937869
 C/A-ratio  =     1.6638463800
  
  Lattice vectors:
  
 A1 = (   2.5130940000,   0.0000000000,   0.0000000000)
 A2 = (  -1.2565470000,   2.1764030000,   0.0000000000)
 A3 = (   0.0000000000,   0.0000000000,   4.1814020000)


Analysis of symmetry for initial positions (statically):
=====================================================================
 Subroutine PRICEL returns:
 Original cell was already a primitive cell.
 

 Routine SETGRP: Setting up the symmetry group for a 
 hexagonal supercell.


 Subroutine GETGRP returns: Found 24 space group operations
 (whereof 12 operations were pure point group operations)
 out of a pool of 24 trial point group operations.


The static configuration has the point symmetry D_3d.
 The point group associated with its full space group is D_6h.


Analysis of symmetry for dynamics (positions and initial velocities):
=====================================================================
 Subroutine PRICEL returns:
 Original cell was already a primitive cell.
 

 Routine SETGRP: Setting up the symmetry group for a 
 hexagonal supercell.


 Subroutine GETGRP returns: Found 24 space group operations
 (whereof 12 operations were pure point group operations)
 out of a pool of 24 trial point group operations.


The dynamic configuration has the point symmetry D_3d.
 The point group associated with its full space group is D_6h.


Analysis of structural, dynamic, and magnetic symmetry:
=====================================================================
 Subroutine PRICEL returns:
 Original cell was already a primitive cell.
 

 Routine SETGRP: Setting up the symmetry group for a 
 hexagonal supercell.


 Subroutine GETGRP returns: Found 24 space group operations
 (whereof 12 operations were pure point group operations)
 out of a pool of 24 trial point group operations.


The magnetic configuration has the point symmetry D_3d.
 The point group associated with its full space group is D_6h.


 Subroutine INISYM returns: Found 24 space group operations
 (whereof 12 operations are pure point group operations),
 and found     1 'primitive' translations

 
 
 KPOINTS: kpt_density=6000                        

Automatic generation of k-mesh.
Space group operators:
 irot       det(A)        alpha          n_x          n_y          n_z        tau_x        tau_y        tau_z
    1     1.000000     0.000000     1.000000     0.000000     0.000000     0.000000     0.000000     0.000000
    2    -1.000000     0.000000     1.000000     0.000000     0.000000     0.000000     0.000000     0.000000
    3     1.000000   120.000000     0.000000     0.000000    -1.000000     0.000000     0.000000     0.000000
    4    -1.000000   120.000000     0.000000     0.000000    -1.000000     0.000000     0.000000     0.000000
    5     1.000000   120.000000     0.000000     0.000000     1.000000     0.000000     0.000000     0.000000
    6    -1.000000   120.000000     0.000000     0.000000     1.000000     0.000000     0.000000     0.000000
    7     1.000000   180.000000     1.000000     0.000000     0.000000     0.000000     0.000000     0.000000
    8    -1.000000   180.000000     1.000000     0.000000     0.000000     0.000000     0.000000     0.000000
    9     1.000000   180.000000     0.500000    -0.866025     0.000000     0.000000     0.000000     0.000000
   10    -1.000000   180.000000     0.500000    -0.866025     0.000000     0.000000     0.000000     0.000000
   11     1.000000   180.000000    -0.500000    -0.866025     0.000000     0.000000     0.000000     0.000000
   12    -1.000000   180.000000    -0.500000    -0.866025     0.000000     0.000000     0.000000     0.000000
   13     1.000000    60.000000     0.000000     0.000000    -1.000000     0.000001     0.000000     0.500000
   14    -1.000000    60.000000     0.000000    -0.000000    -1.000000     0.000001     0.000000     0.500000
   15     1.000000   180.000000     0.000000     0.000000     1.000000     0.000000     0.000000     0.500000
   16    -1.000000   180.000000     0.000000     0.000000     1.000000     0.000000     0.000000     0.500000
   17     1.000000    60.000000     0.000000     0.000000     1.000000     0.000000     0.000000     0.500000
   18    -1.000000    60.000000     0.000000     0.000000     1.000000     0.000000     0.000000     0.500000
   19     1.000000   180.000000     0.866025    -0.500000     0.000000     0.000000     0.000000     0.500000
   20    -1.000000   180.000000     0.866025    -0.500000     0.000000     0.000000     0.000000     0.500000
   21     1.000000   180.000000     0.000000     1.000000     0.000000     0.000001     0.000000     0.500000
   22    -1.000000   180.000000     0.000000     1.000000     0.000000     0.000001     0.000000     0.500000
   23     1.000000   180.000000     0.866025     0.500000     0.000000     0.000000     0.000000     0.500000
   24    -1.000000   180.000000     0.866025     0.500000     0.000000     0.000000     0.000000     0.500000
 
 Subroutine IBZKPT returns following result:
 ===========================================
 
 Found     96 irreducible k-points:
 
 Following reciprocal coordinates:
            Coordinates               Weight
  0.000000  0.000000  0.000000      1.000000
  0.071429  0.000000  0.000000      6.000000
  0.142857  0.000000  0.000000      6.000000
  0.214286  0.000000  0.000000      6.000000
  0.285714  0.000000  0.000000      6.000000
  0.357143  0.000000  0.000000      6.000000
  0.428571  0.000000  0.000000      6.000000
  0.500000  0.000000  0.000000      3.000000
  0.071429  0.071429  0.000000      6.000000
  0.142857  0.071429  0.000000     12.000000
  0.214286  0.071429  0.000000     12.000000
  0.285714  0.071429  0.000000     12.000000
  0.357143  0.071429  0.000000     12.000000
  0.428571  0.071429  0.000000     12.000000
  0.142857  0.142857  0.000000      6.000000
  0.214286  0.142857  0.000000     12.000000
  0.285714  0.142857  0.000000     12.000000
  0.357143  0.142857  0.000000     12.000000
  0.428571  0.142857  0.000000      6.000000
  0.214286  0.214286  0.000000      6.000000
  0.285714  0.214286  0.000000     12.000000
  0.357143  0.214286  0.000000     12.000000
  0.285714  0.285714  0.000000      6.000000
  0.357143  0.285714  0.000000      6.000000
  0.000000  0.000000  0.166667      2.000000
  0.071429  0.000000  0.166667     12.000000
  0.142857  0.000000  0.166667     12.000000
  0.214286  0.000000  0.166667     12.000000
  0.285714  0.000000  0.166667     12.000000
  0.357143  0.000000  0.166667     12.000000
  0.428571  0.000000  0.166667     12.000000
  0.500000  0.000000  0.166667      6.000000
  0.071429  0.071429  0.166667     12.000000
  0.142857  0.071429  0.166667     24.000000
  0.214286  0.071429  0.166667     24.000000
  0.285714  0.071429  0.166667     24.000000
  0.357143  0.071429  0.166667     24.000000
  0.428571  0.071429  0.166667     24.000000
  0.142857  0.142857  0.166667     12.000000
  0.214286  0.142857  0.166667     24.000000
  0.285714  0.142857  0.166667     24.000000
  0.357143  0.142857  0.166667     24.000000
  0.428571  0.142857  0.166667     12.000000
  0.214286  0.214286  0.166667     12.000000
  0.285714  0.214286  0.166667     24.000000
  0.357143  0.214286  0.166667     24.000000
  0.285714  0.285714  0.166667     12.000000
  0.357143  0.285714  0.166667     12.000000
  0.000000  0.000000  0.333333      2.000000
  0.071429  0.000000  0.333333     12.000000
  0.142857  0.000000  0.333333     12.000000
  0.214286  0.000000  0.333333     12.000000
  0.285714  0.000000  0.333333     12.000000
  0.357143  0.000000  0.333333     12.000000
  0.428571  0.000000  0.333333     12.000000
  0.500000  0.000000  0.333333      6.000000
  0.071429  0.071429  0.333333     12.000000
  0.142857  0.071429  0.333333     24.000000
  0.214286  0.071429  0.333333     24.000000
  0.285714  0.071429  0.333333     24.000000
  0.357143  0.071429  0.333333     24.000000
  0.428571  0.071429  0.333333     24.000000
  0.142857  0.142857  0.333333     12.000000
  0.214286  0.142857  0.333333     24.000000
  0.285714  0.142857  0.333333     24.000000
  0.357143  0.142857  0.333333     24.000000
  0.428571  0.142857  0.333333     12.000000
  0.214286  0.214286  0.333333     12.000000
  0.285714  0.214286  0.333333     24.000000
  0.357143  0.214286  0.333333     24.000000
  0.285714  0.285714  0.333333     12.000000
  0.357143  0.285714  0.333333     12.000000
  0.000000  0.000000  0.500000      1.000000
  0.071429  0.000000  0.500000      6.000000
  0.142857  0.000000  0.500000      6.000000
  0.214286  0.000000  0.500000      6.000000
  0.285714  0.000000  0.500000      6.000000
  0.357143  0.000000  0.500000      6.000000
  0.428571  0.000000  0.500000      6.000000
  0.500000  0.000000  0.500000      3.000000
  0.071429  0.071429  0.500000      6.000000
  0.142857  0.071429  0.500000     12.000000
  0.214286  0.071429  0.500000     12.000000
  0.285714  0.071429  0.500000     12.000000
  0.357143  0.071429  0.500000     12.000000
  0.428571  0.071429  0.500000     12.000000
  0.142857  0.142857  0.500000      6.000000
  0.214286  0.142857  0.500000     12.000000
  0.285714  0.142857  0.500000     12.000000
  0.357143  0.142857  0.500000     12.000000
  0.428571  0.142857  0.500000      6.000000
  0.214286  0.214286  0.500000      6.000000
  0.285714  0.214286  0.500000     12.000000
  0.357143  0.214286  0.500000     12.000000
  0.285714  0.285714  0.500000      6.000000
  0.357143  0.285714  0.500000      6.000000
 
 Following cartesian coordinates:
            Coordinates               Weight
  0.000000  0.000000  0.000000      1.000000
  0.028423  0.016410  0.000000      6.000000
  0.056845  0.032820  0.000000      6.000000
  0.085268  0.049229  0.000000      6.000000
  0.113690  0.065639  0.000000      6.000000
  0.142113  0.082049  0.000000      6.000000
  0.170535  0.098459  0.000000      6.000000
  0.198958  0.114868  0.000000      3.000000
  0.028423  0.049229  0.000000      6.000000
  0.056845  0.065639  0.000000     12.000000
  0.085268  0.082049  0.000000     12.000000
  0.113690  0.098459  0.000000     12.000000
  0.142113  0.114868  0.000000     12.000000
  0.170535  0.131278  0.000000     12.000000
  0.056845  0.098459  0.000000      6.000000
  0.085268  0.114868  0.000000     12.000000
  0.113690  0.131278  0.000000     12.000000
  0.142113  0.147688  0.000000     12.000000
  0.170535  0.164098  0.000000      6.000000
  0.085268  0.147688  0.000000      6.000000
  0.113690  0.164098  0.000000     12.000000
  0.142113  0.180508  0.000000     12.000000
  0.113690  0.196917  0.000000      6.000000
  0.142113  0.213327  0.000000      6.000000
  0.000000  0.000000  0.039859      2.000000
  0.028423  0.016410  0.039859     12.000000
  0.056845  0.032820  0.039859     12.000000
  0.085268  0.049229  0.039859     12.000000
  0.113690  0.065639  0.039859     12.000000
  0.142113  0.082049  0.039859     12.000000
  0.170535  0.098459  0.039859     12.000000
  0.198958  0.114868  0.039859      6.000000
  0.028423  0.049229  0.039859     12.000000
  0.056845  0.065639  0.039859     24.000000
  0.085268  0.082049  0.039859     24.000000
  0.113690  0.098459  0.039859     24.000000
  0.142113  0.114868  0.039859     24.000000
  0.170535  0.131278  0.039859     24.000000
  0.056845  0.098459  0.039859     12.000000
  0.085268  0.114868  0.039859     24.000000
  0.113690  0.131278  0.039859     24.000000
  0.142113  0.147688  0.039859     24.000000
  0.170535  0.164098  0.039859     12.000000
  0.085268  0.147688  0.039859     12.000000
  0.113690  0.164098  0.039859     24.000000
  0.142113  0.180508  0.039859     24.000000
  0.113690  0.196917  0.039859     12.000000
  0.142113  0.213327  0.039859     12.000000
  0.000000  0.000000  0.079718      2.000000
  0.028423  0.016410  0.079718     12.000000
  0.056845  0.032820  0.079718     12.000000
  0.085268  0.049229  0.079718     12.000000
  0.113690  0.065639  0.079718     12.000000
  0.142113  0.082049  0.079718     12.000000
  0.170535  0.098459  0.079718     12.000000
  0.198958  0.114868  0.079718      6.000000
  0.028423  0.049229  0.079718     12.000000
  0.056845  0.065639  0.079718     24.000000
  0.085268  0.082049  0.079718     24.000000
  0.113690  0.098459  0.079718     24.000000
  0.142113  0.114868  0.079718     24.000000
  0.170535  0.131278  0.079718     24.000000
  0.056845  0.098459  0.079718     12.000000
  0.085268  0.114868  0.079718     24.000000
  0.113690  0.131278  0.079718     24.000000
  0.142113  0.147688  0.079718     24.000000
  0.170535  0.164098  0.079718     12.000000
  0.085268  0.147688  0.079718     12.000000
  0.113690  0.164098  0.079718     24.000000
  0.142113  0.180508  0.079718     24.000000
  0.113690  0.196917  0.079718     12.000000
  0.142113  0.213327  0.079718     12.000000
  0.000000  0.000000  0.119577      1.000000
  0.028423  0.016410  0.119577      6.000000
  0.056845  0.032820  0.119577      6.000000
  0.085268  0.049229  0.119577      6.000000
  0.113690  0.065639  0.119577      6.000000
  0.142113  0.082049  0.119577      6.000000
  0.170535  0.098459  0.119577      6.000000
  0.198958  0.114868  0.119577      3.000000
  0.028423  0.049229  0.119577      6.000000
  0.056845  0.065639  0.119577     12.000000
  0.085268  0.082049  0.119577     12.000000
  0.113690  0.098459  0.119577     12.000000
  0.142113  0.114868  0.119577     12.000000
  0.170535  0.131278  0.119577     12.000000
  0.056845  0.098459  0.119577      6.000000
  0.085268  0.114868  0.119577     12.000000
  0.113690  0.131278  0.119577     12.000000
  0.142113  0.147688  0.119577     12.000000
  0.170535  0.164098  0.119577      6.000000
  0.085268  0.147688  0.119577      6.000000
  0.113690  0.164098  0.119577     12.000000
  0.142113  0.180508  0.119577     12.000000
  0.113690  0.196917  0.119577      6.000000
  0.142113  0.213327  0.119577      6.000000
 
 TETIRR: Found   1218 inequivalent tetrahedra from     7056


--------------------------------------------------------------------------------------------------------




 Dimension of arrays:
   k-points           NKPTS =     96   k-points in BZ     NKDIM =     96   number of bands    NBANDS=     16
   number of dos      NEDOS =    301   number of ions     NIONS =      4
   non local maximal  LDIM  =      4   non local SUM 2l+1 LMDIM =      8
   total plane-waves  NPLWV =   7168
   max r-space proj   IRMAX =      1   max aug-charges    IRDMAX=   3898
   dimension x,y,z NGX =    16 NGY =   16 NGZ =   28
   dimension x,y,z NGXF=    32 NGYF=   32 NGZF=   56
   support grid    NGXF=    32 NGYF=   32 NGZF=   56
   ions per type =               4
   NGX,Y,Z   is equivalent  to a cutoff of  10.58, 10.58, 11.13 a.u.
   NGXF,Y,Z  is equivalent  to a cutoff of  21.17, 21.17, 22.26 a.u.

 SYSTEM =  unknown system                          
 POSCAR =  C4                                      

 Startparameter for this run:
   NWRITE =      0    write-flag & timer
   PREC   = accura    normal or accurate (medium, high low for compatibility)
   ISTART =      0    job   : 0-new  1-cont  2-samecut
   ICHARG =      0    charge: 1-file 2-atom 10-const
   ISPIN  =      2    spin polarized calculation?
   LNONCOLLINEAR =      F non collinear calculations
   LSORBIT =      F    spin-orbit coupling
   INIWAV =      1    electr: 0-lowe 1-rand  2-diag
   LASPH  =      F    aspherical Exc in radial PAW
   METAGGA=      F    non-selfconsistent MetaGGA calc.

 Electronic Relaxation 1
   ENCUT  =  400.0 eV  29.40 Ry    5.42 a.u.   4.10  4.10  6.82*2*pi/ulx,y,z
   ENINI  =  400.0     initial cutoff
   ENAUG  =  644.9 eV  augmentation charge cutoff
   NELM   =     60;   NELMIN=  2; NELMDL= -5     # of ELM steps 
   EDIFF  = 0.1E-05   stopping-criterion for ELM
   LREAL  =      F    real-space projection
   NLSPLINE    = F    spline interpolate recip. space projectors
   LCOMPAT=      F    compatible to vasp.4.4
   GGA_COMPAT  = T    GGA compatible to vasp.4.4-vasp.4.6
   LMAXPAW     = -100 max onsite density
   LMAXMIX     =    2 max onsite mixed and CHGCAR
   VOSKOWN=      0    Vosko Wilk Nusair interpolation
   ROPT   =    0.00000
 Ionic relaxation
   EDIFFG = 0.1E-03   stopping-criterion for IOM
   NSW    =    100    number of steps for IOM
   NBLOCK =      1;   KBLOCK =    100    inner block; outer block 
   IBRION =      2    ionic relax: 0-MD 1-quasi-New 2-CG
   NFREE  =      1    steps in history (QN), initial steepest desc. (CG)
   ISIF   =      3    stress and relaxation
   IWAVPR =     11    prediction:  0-non 1-charg 2-wave 3-comb
   ISYM   =      2    0-nonsym 1-usesym 2-fastsym
   LCORR  =      T    Harris-Foulkes like correction to forces

   POTIM  = 0.0150    time-step for ionic-motion
   TEIN   =    0.0    initial temperature
   TEBEG  =    0.0;   TEEND  =   0.0 temperature during run
   SMASS  =  -3.00    Nose mass-parameter (am)
   estimated Nose-frequenzy (Omega)   =  0.10E-29 period in steps =****** mass=  -0.144E-27a.u.
   SCALEE = 1.0000    scale energy and forces
   NPACO  =    256;   APACO  = 16.0  distance and # of slots for P.C.
   PSTRESS=  750.0 pullay stress

  Mass of Ions in am
   POMASS =  12.01
  Ionic Valenz
   ZVAL   =   4.00
  Atomic Wigner-Seitz radii
   RWIGS  =  -1.00
  virtual crystal weights 
   VCA    =   1.00
   NELECT =      16.0000    total number of electrons
   NUPDOWN=      -1.0000    fix difference up-down

 DOS related values:
   EMIN   =  10.00;   EMAX   =-10.00  energy-range for DOS
   EFERMI =   0.00
   ISMEAR =    -5;   SIGMA  =   0.01  broadening in eV -4-tet -1-fermi 0-gaus

 Electronic relaxation 2 (details)
   IALGO  =     38    algorithm
   LDIAG  =      T    sub-space diagonalisation (order eigenvalues)
   LSUBROT=      F    optimize rotation matrix (better conditioning)
   TURBO    =      0    0=normal 1=particle mesh
   IRESTART =      0    0=no restart 2=restart with 2 vectors
   NREBOOT  =      0    no. of reboots
   NMIN     =      0    reboot dimension
   EREF     =   0.00    reference energy to select bands
   IMIX   =      4    mixing-type and parameters
     AMIX     =   0.40;   BMIX     =  1.00
     AMIX_MAG =   1.60;   BMIX_MAG =  1.00
     AMIN     =   0.10
     WC   =   100.;   INIMIX=   1;  MIXPRE=   1;  MAXMIX= -45

 Intra band minimization:
   WEIMIN = 0.0010     energy-eigenvalue tresh-hold
   EBREAK =  0.16E-07  absolut break condition
   DEPER  =   0.30     relativ break condition  

   TIME   =   0.40     timestep for ELM

  volume/ion in A,a.u.               =       5.72        38.58
  Fermi-wavevector in a.u.,A,eV,Ry     =   1.453310  2.746357 28.736988  2.112109
  Thomas-Fermi vector in A             =   2.570591
 
 Write flags
   LWAVE        =      F    write WAVECAR
   LDOWNSAMPLE  =      F    k-point downsampling of WAVECAR
   LCHARG       =      F    write CHGCAR
   LVTOT        =      F    write LOCPOT, total local potential
   LVHAR        =      F    write LOCPOT, Hartree potential only
   LELF         =      F    write electronic localiz. function (ELF)
   LORBIT       =     11    0 simple, 1 ext, 2 COOP (PROOUT), +10 PAW based schemes


 Dipole corrections
   LMONO  =      F    monopole corrections only (constant potential shift)
   LDIPOL =      F    correct potential (dipole corrections)
   IDIPOL =      0    1-x, 2-y, 3-z, 4-all directions 
   EPSILON=  1.0000000 bulk dielectric constant

 Exchange correlation treatment:
   GGA     =    --    GGA type
   LEXCH   =     8    internal setting for exchange type
   VOSKOWN=      0    Vosko Wilk Nusair interpolation
   LHFCALC =     F    Hartree Fock is set to
   LHFONE  =     F    Hartree Fock one center treatment
   AEXX    =    0.0000 exact exchange contribution

 Linear response parameters
   LEPSILON=     F    determine dielectric tensor
   LRPA    =     F    only Hartree local field effects (RPA)
   LNABLA  =     F    use nabla operator in PAW spheres
   LVEL    =     F    velocity operator in full k-point grid
   LINTERFAST=   F  fast interpolation
   KINTER  =     0    interpolate to denser k-point grid
   CSHIFT  =0.1000    complex shift for real part using Kramers Kronig
   OMEGAMAX=  -1.0    maximum frequency
   DEG_THRESHOLD= 0.2000000E-02 threshold for treating states as degnerate
   RTIME   =   -0.100 relaxation time in fs
  (WPLASMAI=    0.000 imaginary part of plasma frequency in eV, 0.658/RTIME)
   DFIELD  = 0.0000000 0.0000000 0.0000000 field for delta impulse in time
 
 Orbital magnetization related:
   ORBITALMAG=     F  switch on orbital magnetization
   LCHIMAG   =     F  perturbation theory with respect to B field
   DQ        =  0.001000  dq finite difference perturbation B field
   LLRAUG    =     F  two centre corrections for induced B field



--------------------------------------------------------------------------------------------------------


 conjugate gradient relaxation of ions
 charge density and potential will be updated during run
 spin polarized calculation
 Variant of blocked Davidson
 Davidson routine will perform the subspace rotation
 perform sub-space diagonalisation
    after iterative eigenvector-optimisation
 modified Broyden-mixing scheme, WC =      100.0
 initial mixing is a Kerker type mixing with AMIX =  0.4000 and BMIX =      1.0000
 Hartree-type preconditioning will be used
 using additional bands             8
 reciprocal scheme for non local part
 calculate Harris-corrections to forces 
   (improved forces if not selfconsistent)
 use gradient corrections 
 use of overlap-Matrix (Vanderbilt PP)
 Fermi weights with tetrahedron method with Bloechl corrections


--------------------------------------------------------------------------------------------------------


  energy-cutoff  :      400.00
  volume of cell :       22.87
      direct lattice vectors                 reciprocal lattice vectors
     2.513094000  0.000000000  0.000000000     0.397915876  0.229736864 -0.000000000
    -1.256547000  2.176403000  0.000000000     0.000000000  0.459473728  0.000000000
     0.000000000  0.000000000  4.181402000     0.000000000 -0.000000000  0.239154236

  length of vectors
     2.513094000  2.513093787  4.181402000     0.459473689  0.459473728  0.239154236


 
 k-points in units of 2pi/SCALE and weight: kpt_density=6000                        
   0.00000000  0.00000000  0.00000000       0.001
   0.02842256  0.01640978  0.00000000       0.005
   0.05684513  0.03281955  0.00000000       0.005
   0.08526769  0.04922933  0.00000000       0.005
   0.11369025  0.06563910  0.00000000       0.005
   0.14211281  0.08204888  0.00000000       0.005
   0.17053538  0.09845866  0.00000000       0.005
   0.19895794  0.11486843  0.00000000       0.003
   0.02842256  0.04922933  0.00000000       0.005
   0.05684513  0.06563910  0.00000000       0.010
   0.08526769  0.08204888  0.00000000       0.010
   0.11369025  0.09845866  0.00000000       0.010
   0.14211281  0.11486843  0.00000000       0.010
   0.17053538  0.13127821  0.00000000       0.010
   0.05684513  0.09845866  0.00000000       0.005
   0.08526769  0.11486843  0.00000000       0.010
   0.11369025  0.13127821  0.00000000       0.010
   0.14211281  0.14768798  0.00000000       0.010
   0.17053538  0.16409776  0.00000000       0.005
   0.08526769  0.14768798  0.00000000       0.005
   0.11369025  0.16409776  0.00000000       0.010
   0.14211281  0.18050754  0.00000000       0.010
   0.11369025  0.19691731  0.00000000       0.005
   0.14211281  0.21332709  0.00000000       0.005
   0.00000000  0.00000000  0.03985904       0.002
   0.02842256  0.01640978  0.03985904       0.010
   0.05684513  0.03281955  0.03985904       0.010
   0.08526769  0.04922933  0.03985904       0.010
   0.11369025  0.06563910  0.03985904       0.010
   0.14211281  0.08204888  0.03985904       0.010
   0.17053538  0.09845866  0.03985904       0.010
   0.19895794  0.11486843  0.03985904       0.005
   0.02842256  0.04922933  0.03985904       0.010
   0.05684513  0.06563910  0.03985904       0.020
   0.08526769  0.08204888  0.03985904       0.020
   0.11369025  0.09845866  0.03985904       0.020
   0.14211281  0.11486843  0.03985904       0.020
   0.17053538  0.13127821  0.03985904       0.020
   0.05684513  0.09845866  0.03985904       0.010
   0.08526769  0.11486843  0.03985904       0.020
   0.11369025  0.13127821  0.03985904       0.020
   0.14211281  0.14768798  0.03985904       0.020
   0.17053538  0.16409776  0.03985904       0.010
   0.08526769  0.14768798  0.03985904       0.010
   0.11369025  0.16409776  0.03985904       0.020
   0.14211281  0.18050754  0.03985904       0.020
   0.11369025  0.19691731  0.03985904       0.010
   0.14211281  0.21332709  0.03985904       0.010
   0.00000000  0.00000000  0.07971808       0.002
   0.02842256  0.01640978  0.07971808       0.010
   0.05684513  0.03281955  0.07971808       0.010
   0.08526769  0.04922933  0.07971808       0.010
   0.11369025  0.06563910  0.07971808       0.010
   0.14211281  0.08204888  0.07971808       0.010
   0.17053538  0.09845866  0.07971808       0.010
   0.19895794  0.11486843  0.07971808       0.005
   0.02842256  0.04922933  0.07971808       0.010
   0.05684513  0.06563910  0.07971808       0.020
   0.08526769  0.08204888  0.07971808       0.020
   0.11369025  0.09845866  0.07971808       0.020
   0.14211281  0.11486843  0.07971808       0.020
   0.17053538  0.13127821  0.07971808       0.020
   0.05684513  0.09845866  0.07971808       0.010
   0.08526769  0.11486843  0.07971808       0.020
   0.11369025  0.13127821  0.07971808       0.020
   0.14211281  0.14768798  0.07971808       0.020
   0.17053538  0.16409776  0.07971808       0.010
   0.08526769  0.14768798  0.07971808       0.010
   0.11369025  0.16409776  0.07971808       0.020
   0.14211281  0.18050754  0.07971808       0.020
   0.11369025  0.19691731  0.07971808       0.010
   0.14211281  0.21332709  0.07971808       0.010
   0.00000000  0.00000000  0.11957712       0.001
   0.02842256  0.01640978  0.11957712       0.005
   0.05684513  0.03281955  0.11957712       0.005
   0.08526769  0.04922933  0.11957712       0.005
   0.11369025  0.06563910  0.11957712       0.005
   0.14211281  0.08204888  0.11957712       0.005
   0.17053538  0.09845866  0.11957712       0.005
   0.19895794  0.11486843  0.11957712       0.003
   0.02842256  0.04922933  0.11957712       0.005
   0.05684513  0.06563910  0.11957712       0.010
   0.08526769  0.08204888  0.11957712       0.010
   0.11369025  0.09845866  0.11957712       0.010
   0.14211281  0.11486843  0.11957712       0.010
   0.17053538  0.13127821  0.11957712       0.010
   0.05684513  0.09845866  0.11957712       0.005
   0.08526769  0.11486843  0.11957712       0.010
   0.11369025  0.13127821  0.11957712       0.010
   0.14211281  0.14768798  0.11957712       0.010
   0.17053538  0.16409776  0.11957712       0.005
   0.08526769  0.14768798  0.11957712       0.005
   0.11369025  0.16409776  0.11957712       0.010
   0.14211281  0.18050754  0.11957712       0.010
   0.11369025  0.19691731  0.11957712       0.005
   0.14211281  0.21332709  0.11957712       0.005
 
 k-points in reciprocal lattice and weights: kpt_density=6000                        
   0.00000000  0.00000000  0.00000000       0.001
   0.07142857  0.00000000  0.00000000       0.005
   0.14285714  0.00000000  0.00000000       0.005
   0.21428571  0.00000000  0.00000000       0.005
   0.28571429  0.00000000  0.00000000       0.005
   0.35714286  0.00000000  0.00000000       0.005
   0.42857143  0.00000000  0.00000000       0.005
   0.50000000  0.00000000  0.00000000       0.003
   0.07142857  0.07142857  0.00000000       0.005
   0.14285714  0.07142857  0.00000000       0.010
   0.21428571  0.07142857  0.00000000       0.010
   0.28571429  0.07142857  0.00000000       0.010
   0.35714286  0.07142857  0.00000000       0.010
   0.42857143  0.07142857  0.00000000       0.010
   0.14285714  0.14285714  0.00000000       0.005
   0.21428571  0.14285714  0.00000000       0.010
   0.28571429  0.14285714  0.00000000       0.010
   0.35714286  0.14285714  0.00000000       0.010
   0.42857143  0.14285714  0.00000000       0.005
   0.21428571  0.21428571  0.00000000       0.005
   0.28571429  0.21428571  0.00000000       0.010
   0.35714286  0.21428571  0.00000000       0.010
   0.28571429  0.28571429  0.00000000       0.005
   0.35714286  0.28571429  0.00000000       0.005
   0.00000000  0.00000000  0.16666667       0.002
   0.07142857  0.00000000  0.16666667       0.010
   0.14285714  0.00000000  0.16666667       0.010
   0.21428571  0.00000000  0.16666667       0.010
   0.28571429  0.00000000  0.16666667       0.010
   0.35714286  0.00000000  0.16666667       0.010
   0.42857143  0.00000000  0.16666667       0.010
   0.50000000  0.00000000  0.16666667       0.005
   0.07142857  0.07142857  0.16666667       0.010
   0.14285714  0.07142857  0.16666667       0.020
   0.21428571  0.07142857  0.16666667       0.020
   0.28571429  0.07142857  0.16666667       0.020
   0.35714286  0.07142857  0.16666667       0.020
   0.42857143  0.07142857  0.16666667       0.020
   0.14285714  0.14285714  0.16666667       0.010
   0.21428571  0.14285714  0.16666667       0.020
   0.28571429  0.14285714  0.16666667       0.020
   0.35714286  0.14285714  0.16666667       0.020
   0.42857143  0.14285714  0.16666667       0.010
   0.21428571  0.21428571  0.16666667       0.010
   0.28571429  0.21428571  0.16666667       0.020
   0.35714286  0.21428571  0.16666667       0.020
   0.28571429  0.28571429  0.16666667       0.010
   0.35714286  0.28571429  0.16666667       0.010
   0.00000000  0.00000000  0.33333333       0.002
   0.07142857  0.00000000  0.33333333       0.010
   0.14285714  0.00000000  0.33333333       0.010
   0.21428571  0.00000000  0.33333333       0.010
   0.28571429  0.00000000  0.33333333       0.010
   0.35714286  0.00000000  0.33333333       0.010
   0.42857143  0.00000000  0.33333333       0.010
   0.50000000  0.00000000  0.33333333       0.005
   0.07142857  0.07142857  0.33333333       0.010
   0.14285714  0.07142857  0.33333333       0.020
   0.21428571  0.07142857  0.33333333       0.020
   0.28571429  0.07142857  0.33333333       0.020
   0.35714286  0.07142857  0.33333333       0.020
   0.42857143  0.07142857  0.33333333       0.020
   0.14285714  0.14285714  0.33333333       0.010
   0.21428571  0.14285714  0.33333333       0.020
   0.28571429  0.14285714  0.33333333       0.020
   0.35714286  0.14285714  0.33333333       0.020
   0.42857143  0.14285714  0.33333333       0.010
   0.21428571  0.21428571  0.33333333       0.010
   0.28571429  0.21428571  0.33333333       0.020
   0.35714286  0.21428571  0.33333333       0.020
   0.28571429  0.28571429  0.33333333       0.010
   0.35714286  0.28571429  0.33333333       0.010
   0.00000000  0.00000000  0.50000000       0.001
   0.07142857  0.00000000  0.50000000       0.005
   0.14285714  0.00000000  0.50000000       0.005
   0.21428571  0.00000000  0.50000000       0.005
   0.28571429  0.00000000  0.50000000       0.005
   0.35714286  0.00000000  0.50000000       0.005
   0.42857143  0.00000000  0.50000000       0.005
   0.50000000  0.00000000  0.50000000       0.003
   0.07142857  0.07142857  0.50000000       0.005
   0.14285714  0.07142857  0.50000000       0.010
   0.21428571  0.07142857  0.50000000       0.010
   0.28571429  0.07142857  0.50000000       0.010
   0.35714286  0.07142857  0.50000000       0.010
   0.42857143  0.07142857  0.50000000       0.010
   0.14285714  0.14285714  0.50000000       0.005
   0.21428571  0.14285714  0.50000000       0.010
   0.28571429  0.14285714  0.50000000       0.010
   0.35714286  0.14285714  0.50000000       0.010
   0.42857143  0.14285714  0.50000000       0.005
   0.21428571  0.21428571  0.50000000       0.005
   0.28571429  0.21428571  0.50000000       0.010
   0.35714286  0.21428571  0.50000000       0.010
   0.28571429  0.28571429  0.50000000       0.005
   0.35714286  0.28571429  0.50000000       0.005
 
 position of ions in fractional coordinates (direct lattice) 
   0.33333300  0.66666700  0.93722800
   0.66666700  0.33333300  0.43722800
   0.66666700  0.33333300  0.06277200
   0.33333300  0.66666700  0.56277200
 
 position of ions in cartesian coordinates  (Angst):
  -0.00000126  1.45093606  3.91892703
   1.25654826  0.72546694  1.82822603
   1.25654826  0.72546694  0.26247497
  -0.00000126  1.45093606  2.35317597
 


--------------------------------------------------------------------------------------------------------


 k-point  1 :   0.0000 0.0000 0.0000  plane waves:     391
 k-point  2 :   0.0714 0.0000 0.0000  plane waves:     393
 k-point  3 :   0.1429 0.0000 0.0000  plane waves:     407
 k-point  4 :   0.2143 0.0000 0.0000  plane waves:     405
 k-point  5 :   0.2857 0.0000 0.0000  plane waves:     415
 k-point  6 :   0.3571 0.0000 0.0000  plane waves:     421
 k-point  7 :   0.4286 0.0000 0.0000  plane waves:     417
 k-point  8 :   0.5000 0.0000 0.0000  plane waves:     428
 k-point  9 :   0.0714 0.0714 0.0000  plane waves:     400
 k-point 10 :   0.1429 0.0714 0.0000  plane waves:     410
 k-point 11 :   0.2143 0.0714 0.0000  plane waves:     412
 k-point 12 :   0.2857 0.0714 0.0000  plane waves:     416
 k-point 13 :   0.3571 0.0714 0.0000  plane waves:     416
 k-point 14 :   0.4286 0.0714 0.0000  plane waves:     420
 k-point 15 :   0.1429 0.1429 0.0000  plane waves:     410
 k-point 16 :   0.2143 0.1429 0.0000  plane waves:     415
 k-point 17 :   0.2857 0.1429 0.0000  plane waves:     419
 k-point 18 :   0.3571 0.1429 0.0000  plane waves:     417
 k-point 19 :   0.4286 0.1429 0.0000  plane waves:     430
 k-point 20 :   0.2143 0.2143 0.0000  plane waves:     414
 k-point 21 :   0.2857 0.2143 0.0000  plane waves:     421
 k-point 22 :   0.3571 0.2143 0.0000  plane waves:     422
 k-point 23 :   0.2857 0.2857 0.0000  plane waves:     418
 k-point 24 :   0.3571 0.2857 0.0000  plane waves:     416
 k-point 25 :   0.0000 0.0000 0.1667  plane waves:     397
 k-point 26 :   0.0714 0.0000 0.1667  plane waves:     398
 k-point 27 :   0.1429 0.0000 0.1667  plane waves:     406
 k-point 28 :   0.2143 0.0000 0.1667  plane waves:     411
 k-point 29 :   0.2857 0.0000 0.1667  plane waves:     418
 k-point 30 :   0.3571 0.0000 0.1667  plane waves:     417
 k-point 31 :   0.4286 0.0000 0.1667  plane waves:     421
 k-point 32 :   0.5000 0.0000 0.1667  plane waves:     428
 k-point 33 :   0.0714 0.0714 0.1667  plane waves:     405
 k-point 34 :   0.1429 0.0714 0.1667  plane waves:     407
 k-point 35 :   0.2143 0.0714 0.1667  plane waves:     415
 k-point 36 :   0.2857 0.0714 0.1667  plane waves:     419
 k-point 37 :   0.3571 0.0714 0.1667  plane waves:     418
 k-point 38 :   0.4286 0.0714 0.1667  plane waves:     419
 k-point 39 :   0.1429 0.1429 0.1667  plane waves:     411
 k-point 40 :   0.2143 0.1429 0.1667  plane waves:     414
 k-point 41 :   0.2857 0.1429 0.1667  plane waves:     417
 k-point 42 :   0.3571 0.1429 0.1667  plane waves:     419
 k-point 43 :   0.4286 0.1429 0.1667  plane waves:     421
 k-point 44 :   0.2143 0.2143 0.1667  plane waves:     416
 k-point 45 :   0.2857 0.2143 0.1667  plane waves:     416
 k-point 46 :   0.3571 0.2143 0.1667  plane waves:     419
 k-point 47 :   0.2857 0.2857 0.1667  plane waves:     414
 k-point 48 :   0.3571 0.2857 0.1667  plane waves:     416
 k-point 49 :   0.0000 0.0000 0.3333  plane waves:     398
 k-point 50 :   0.0714 0.0000 0.3333  plane waves:     408
 k-point 51 :   0.1429 0.0000 0.3333  plane waves:     409
 k-point 52 :   0.2143 0.0000 0.3333  plane waves:     412
 k-point 53 :   0.2857 0.0000 0.3333  plane waves:     419
 k-point 54 :   0.3571 0.0000 0.3333  plane waves:     419
 k-point 55 :   0.4286 0.0000 0.3333  plane waves:     416
 k-point 56 :   0.5000 0.0000 0.3333  plane waves:     412
 k-point 57 :   0.0714 0.0714 0.3333  plane waves:     408
 k-point 58 :   0.1429 0.0714 0.3333  plane waves:     414
 k-point 59 :   0.2143 0.0714 0.3333  plane waves:     414
 k-point 60 :   0.2857 0.0714 0.3333  plane waves:     417
 k-point 61 :   0.3571 0.0714 0.3333  plane waves:     416
 k-point 62 :   0.4286 0.0714 0.3333  plane waves:     417
 k-point 63 :   0.1429 0.1429 0.3333  plane waves:     411
 k-point 64 :   0.2143 0.1429 0.3333  plane waves:     416
 k-point 65 :   0.2857 0.1429 0.3333  plane waves:     417
 k-point 66 :   0.3571 0.1429 0.3333  plane waves:     419
 k-point 67 :   0.4286 0.1429 0.3333  plane waves:     420
 k-point 68 :   0.2143 0.2143 0.3333  plane waves:     416
 k-point 69 :   0.2857 0.2143 0.3333  plane waves:     417
 k-point 70 :   0.3571 0.2143 0.3333  plane waves:     418
 k-point 71 :   0.2857 0.2857 0.3333  plane waves:     419
 k-point 72 :   0.3571 0.2857 0.3333  plane waves:     421
 k-point 73 :   0.0000 0.0000 0.5000  plane waves:     422
 k-point 74 :   0.0714 0.0000 0.5000  plane waves:     420
 k-point 75 :   0.1429 0.0000 0.5000  plane waves:     404
 k-point 76 :   0.2143 0.0000 0.5000  plane waves:     412
 k-point 77 :   0.2857 0.0000 0.5000  plane waves:     416
 k-point 78 :   0.3571 0.0000 0.5000  plane waves:     420
 k-point 79 :   0.4286 0.0000 0.5000  plane waves:     412
 k-point 80 :   0.5000 0.0000 0.5000  plane waves:     420
 k-point 81 :   0.0714 0.0714 0.5000  plane waves:     410
 k-point 82 :   0.1429 0.0714 0.5000  plane waves:     418
 k-point 83 :   0.2143 0.0714 0.5000  plane waves:     416
 k-point 84 :   0.2857 0.0714 0.5000  plane waves:     416
 k-point 85 :   0.3571 0.0714 0.5000  plane waves:     420
 k-point 86 :   0.4286 0.0714 0.5000  plane waves:     412
 k-point 87 :   0.1429 0.1429 0.5000  plane waves:     416
 k-point 88 :   0.2143 0.1429 0.5000  plane waves:     418
 k-point 89 :   0.2857 0.1429 0.5000  plane waves:     418
 k-point 90 :   0.3571 0.1429 0.5000  plane waves:     416
 k-point 91 :   0.4286 0.1429 0.5000  plane waves:     410
 k-point 92 :   0.2143 0.2143 0.5000  plane waves:     422
 k-point 93 :   0.2857 0.2143 0.5000  plane waves:     420
 k-point 94 :   0.3571 0.2143 0.5000  plane waves:     416
 k-point 95 :   0.2857 0.2857 0.5000  plane waves:     424
 k-point 96 :   0.3571 0.2857 0.5000  plane waves:     416

 maximum and minimum number of plane-waves per node :       116       84

 maximum number of plane-waves:       430
 maximum index in each direction: 
   IXMAX=    4   IYMAX=    4   IZMAX=    6
   IXMIN=   -4   IYMIN=   -4   IZMIN=   -7


 parallel 3D FFT for wavefunctions:
    minimum data exchange during FFTs selected (reduces bandwidth)
 parallel 3D FFT for charge:
    minimum data exchange during FFTs selected (reduces bandwidth)


 total amount of memory used by VASP MPI-rank0    32838. kBytes
=======================================================================

   base      :      30000. kBytes
   nonl-proj :        720. kBytes
   fftplans  :        179. kBytes
   grid      :        410. kBytes
   one-center:          6. kBytes
   wavefun   :       1523. kBytes
 
     INWAV:  cpu time    0.0000: real time    0.0000
 Broyden mixing: mesh for mixing (old mesh)
   NGX =  9   NGY =  9   NGZ = 13
  (NGX  = 32   NGY  = 32   NGZ  = 56)
  gives a total of   1053 points

 charge density for first step will be calculated from the start-wavefunctions


--------------------------------------------------------------------------------------------------------


 Maximum index for augmentation-charges           192 (set IRDMAX)


--------------------------------------------------------------------------------------------------------


 initial charge from wavefunction
 First call to EWALD:  gamma=   0.624
 Maximum number of real-space cells 3x 3x 2
 Maximum number of reciprocal cells 2x 2x 4

    FEWALD:  cpu time    0.0004: real time    0.0004


--------------------------------------- Iteration      1(   1)  ---------------------------------------


    POTLOK:  cpu time    0.0102: real time    0.0123
    SETDIJ:  cpu time    0.0034: real time    0.0034
     EDDAV:  cpu time    0.6416: real time    0.6417
 BZINTS: Fermi energy: 11.800224; 16.000000 electrons
         Band energy: -45.934342;  BLOECHL correction: -0.000689
       DOS:  cpu time    0.0792: real time    0.0792
    --------------------------------------------
      LOOP:  cpu time    0.7345: real time    0.7366

 eigenvalue-minimisations  :  6384
 total energy-change (2. order) :-0.5188667E+02  (-0.7862084E+03)
 number of electron      16.0000002 magnetization       0.0000000
 augmentation part       -0.0805169 magnetization      -0.0098027

 Free energy of the ion-electron system (eV)
  ---------------------------------------------------
  alpha Z        PSCENC =        57.00355031
  Ewald energy   TEWEN  =      -693.14249887
  -Hartree energ DENC   =       -10.98334729
  -exchange      EXHF   =         0.00000000
  -V(xc)+E(xc)   XCENC  =        54.99563597
  PAW double counting   =        41.61605702      -43.95062456
  entropy T*S    EENTRO =         0.00000000
  eigenvalues    EBANDS =       -45.93434201
  atomic energy  EATOM  =       588.50889549
  Solvation  Ediel_sol  =         0.00000000
  ---------------------------------------------------
  free energy    TOTEN  =       -51.88667396 eV

  energy without entropy =      -51.88667396  energy(sigma->0) =      -51.88667396


--------------------------------------------------------------------------------------------------------




--------------------------------------- Iteration      1(   2)  ---------------------------------------


     EDDAV:  cpu time    0.8763: real time    0.8771
 BZINTS: Fermi energy:  1.049271; 16.000000 electrons
         Band energy:-100.352606;  BLOECHL correction:  0.000000
       DOS:  cpu time    0.0161: real time    0.0161
    --------------------------------------------
      LOOP:  cpu time    0.8924: real time    0.8932

 eigenvalue-minimisations  :  9088
 total energy-change (2. order) :-0.5441826E+02  (-0.5069018E+02)
 number of electron      16.0000002 magnetization       0.0000000
 augmentation part       -0.0805169 magnetization      -0.0098027

 Free energy of the ion-electron system (eV)
  ---------------------------------------------------
  alpha Z        PSCENC =        57.00355031
  Ewald energy   TEWEN  =      -693.14249887
  -Hartree energ DENC   =       -10.98334729
  -exchange      EXHF   =         0.00000000
  -V(xc)+E(xc)   XCENC  =        54.99563597
  PAW double counting   =        41.61605702      -43.95062456
  entropy T*S    EENTRO =         0.00000000
  eigenvalues    EBANDS =      -100.35260582
  atomic energy  EATOM  =       588.50889549
  Solvation  Ediel_sol  =         0.00000000
  ---------------------------------------------------
  free energy    TOTEN  =      -106.30493776 eV

  energy without entropy =     -106.30493776  energy(sigma->0) =     -106.30493776


--------------------------------------------------------------------------------------------------------




--------------------------------------- Iteration      1(   3)  ---------------------------------------


     EDDAV:  cpu time    0.6431: real time    0.6438
 BZINTS: Fermi energy:  0.849114; 16.000000 electrons
         Band energy:-102.177855;  BLOECHL correction:  0.000000
       DOS:  cpu time    0.0186: real time    0.0186
    --------------------------------------------
      LOOP:  cpu time    0.6617: real time    0.6624

 eigenvalue-minimisations  :  6416
 total energy-change (2. order) :-0.1825250E+01  (-0.1821014E+01)
 number of electron      16.0000002 magnetization       0.0000000
 augmentation part       -0.0805169 magnetization      -0.0098027

 Free energy of the ion-electron system (eV)
  ---------------------------------------------------
  alpha Z        PSCENC =        57.00355031
  Ewald energy   TEWEN  =      -693.14249887
  -Hartree energ DENC   =       -10.98334729
  -exchange      EXHF   =         0.00000000
  -V(xc)+E(xc)   XCENC  =        54.99563597
  PAW double counting   =        41.61605702      -43.95062456
  entropy T*S    EENTRO =         0.00000000
  eigenvalues    EBANDS =      -102.17785544
  atomic energy  EATOM  =       588.50889549
  Solvation  Ediel_sol  =         0.00000000
  ---------------------------------------------------
  free energy    TOTEN  =      -108.13018739 eV

  energy without entropy =     -108.13018739  energy(sigma->0) =     -108.13018739


--------------------------------------------------------------------------------------------------------




--------------------------------------- Iteration      1(   4)  ---------------------------------------


     EDDAV:  cpu time    0.7178: real time    0.7197
 BZINTS: Fermi energy:  0.833295; 16.000000 electrons
         Band energy:-102.188432;  BLOECHL correction:  0.000000
       DOS:  cpu time    0.0187: real time    0.0187
    --------------------------------------------
      LOOP:  cpu time    0.7365: real time    0.7384

 eigenvalue-minimisations  :  7464
 total energy-change (2. order) :-0.1057641E-01  (-0.1057582E-01)
 number of electron      16.0000002 magnetization       0.0000000
 augmentation part       -0.0805169 magnetization      -0.0098027

 Free energy of the ion-electron system (eV)
  ---------------------------------------------------
  alpha Z        PSCENC =        57.00355031
  Ewald energy   TEWEN  =      -693.14249887
  -Hartree energ DENC   =       -10.98334729
  -exchange      EXHF   =         0.00000000
  -V(xc)+E(xc)   XCENC  =        54.99563597
  PAW double counting   =        41.61605702      -43.95062456
  entropy T*S    EENTRO =         0.00000000
  eigenvalues    EBANDS =      -102.18843185
  atomic energy  EATOM  =       588.50889549
  Solvation  Ediel_sol  =         0.00000000
  ---------------------------------------------------
  free energy    TOTEN  =      -108.14076379 eV

  energy without entropy =     -108.14076379  energy(sigma->0) =     -108.14076379


--------------------------------------------------------------------------------------------------------




--------------------------------------- Iteration      1(   5)  ---------------------------------------


     EDDAV:  cpu time    0.6385: real time    0.6393
 BZINTS: Fermi energy:  0.833240; 16.000000 electrons
         Band energy:-102.188516;  BLOECHL correction:  0.000000
       DOS:  cpu time    0.0186: real time    0.0186
    CHARGE:  cpu time    0.0181: real time    0.0181
    MIXING:  cpu time    0.0003: real time    0.0003
    --------------------------------------------
      LOOP:  cpu time    0.6756: real time    0.6764

 eigenvalue-minimisations  :  6408
 total energy-change (2. order) :-0.8456195E-04  (-0.8456191E-04)
 number of electron      15.9999988 magnetization      -0.0000000
 augmentation part        0.4856363 magnetization       0.0005668

 Broyden mixing:
  rms(total) = 0.39055E+01    rms(broyden)= 0.39007E+01
  rms(prec ) = 0.86286E+01
  weight for this iteration     100.00

 Free energy of the ion-electron system (eV)
  ---------------------------------------------------
  alpha Z        PSCENC =        57.00355031
  Ewald energy   TEWEN  =      -693.14249887
  -Hartree energ DENC   =       -10.98334729
  -exchange      EXHF   =         0.00000000
  -V(xc)+E(xc)   XCENC  =        54.99563597
  PAW double counting   =        41.61605702      -43.95062456
  entropy T*S    EENTRO =         0.00000000
  eigenvalues    EBANDS =      -102.18851641
  atomic energy  EATOM  =       588.50889549
  Solvation  Ediel_sol  =         0.00000000
  ---------------------------------------------------
  free energy    TOTEN  =      -108.14084836 eV

  energy without entropy =     -108.14084836  energy(sigma->0) =     -108.14084836


--------------------------------------------------------------------------------------------------------




--------------------------------------- Iteration      1(   6)  ---------------------------------------


    POTLOK:  cpu time    0.0061: real time    0.0072
    SETDIJ:  cpu time    0.0031: real time    0.0031
     EDDAV:  cpu time    0.6512: real time    0.6512
 BZINTS: Fermi energy:  5.146499; 16.000000 electrons
         Band energy: -47.643532;  BLOECHL correction:  0.000000
       DOS:  cpu time    0.0207: real time    0.0207
    CHARGE:  cpu time    0.0200: real time    0.0200
    MIXING:  cpu time    0.0002: real time    0.0002
    --------------------------------------------
      LOOP:  cpu time    0.7013: real time    0.7025

 eigenvalue-minimisations  :  6376
 total energy-change (2. order) : 0.5191254E+02  (-0.2559908E+01)
 number of electron      15.9999989 magnetization       0.0000000
 augmentation part        0.4312158 magnetization      -0.0000495

 Broyden mixing:
  rms(total) = 0.21509E+01    rms(broyden)= 0.21506E+01
  rms(prec ) = 0.47704E+01
  weight for this iteration     100.00

 eigenvalues of (default mixing * dielectric matrix)
  average eigenvalue GAMMA=   2.1595
  2.1595

 Free energy of the ion-electron system (eV)
  ---------------------------------------------------
  alpha Z        PSCENC =        57.00355031
  Ewald energy   TEWEN  =      -693.14249887
  -Hartree energ DENC   =       -11.82688738
  -exchange      EXHF   =         0.00000000
  -V(xc)+E(xc)   XCENC  =        55.09312839
  PAW double counting   =       125.25666468     -129.47763083
  entropy T*S    EENTRO =         0.00000000
  eigenvalues    EBANDS =       -47.64353152
  atomic energy  EATOM  =       588.50889549
  Solvation  Ediel_sol  =         0.00000000
  ---------------------------------------------------
  free energy    TOTEN  =       -56.22830974 eV

  energy without entropy =      -56.22830974  energy(sigma->0) =      -56.22830974


--------------------------------------------------------------------------------------------------------




--------------------------------------- Iteration      1(   7)  ---------------------------------------


    POTLOK:  cpu time    0.0066: real time    0.0073
    SETDIJ:  cpu time    0.0032: real time    0.0032
     EDDAV:  cpu time    0.7262: real time    0.7263
 BZINTS: Fermi energy: 10.212516; 16.000000 electrons
         Band energy:  13.944867;  BLOECHL correction:  0.000000
       DOS:  cpu time    0.0187: real time    0.0187
    CHARGE:  cpu time    0.0183: real time    0.0183
    MIXING:  cpu time    0.0002: real time    0.0002
    --------------------------------------------
      LOOP:  cpu time    0.7733: real time    0.7740

 eigenvalue-minimisations  :  7488
 total energy-change (2. order) : 0.2014421E+02  (-0.3801178E+01)
 number of electron      15.9999991 magnetization      -0.0000000
 augmentation part        0.3627043 magnetization       0.0000846

 Broyden mixing:
  rms(total) = 0.32006E+00    rms(broyden)= 0.31964E+00
  rms(prec ) = 0.51264E+00
  weight for this iteration     100.00

 eigenvalues of (default mixing * dielectric matrix)
  average eigenvalue GAMMA=   1.8715
  1.8715  1.8715

 Free energy of the ion-electron system (eV)
  ---------------------------------------------------
  alpha Z        PSCENC =        57.00355031
  Ewald energy   TEWEN  =      -693.14249887
  -Hartree energ DENC   =       -55.68654873
  -exchange      EXHF   =         0.00000000
  -V(xc)+E(xc)   XCENC  =        58.93717306
  PAW double counting   =       279.64831567     -285.29784887
  entropy T*S    EENTRO =         0.00000000
  eigenvalues    EBANDS =        13.94486688
  atomic energy  EATOM  =       588.50889549
  Solvation  Ediel_sol  =         0.00000000
  ---------------------------------------------------
  free energy    TOTEN  =       -36.08409507 eV

  energy without entropy =      -36.08409507  energy(sigma->0) =      -36.08409507


--------------------------------------------------------------------------------------------------------




--------------------------------------- Iteration      1(   8)  ---------------------------------------


    POTLOK:  cpu time    0.0052: real time    0.0070
    SETDIJ:  cpu time    0.0031: real time    0.0031
     EDDAV:  cpu time    0.6593: real time    0.6593
 BZINTS: Fermi energy:  9.777055; 16.000000 electrons
         Band energy:   8.452092;  BLOECHL correction:  0.000000
       DOS:  cpu time    0.0189: real time    0.0189
    CHARGE:  cpu time    0.0181: real time    0.0181
    MIXING:  cpu time    0.0002: real time    0.0002
    --------------------------------------------
      LOOP:  cpu time    0.7046: real time    0.7065

 eigenvalue-minimisations  :  6720
 total energy-change (2. order) :-0.1283817E+00  (-0.1211285E+00)
 number of electron      15.9999991 magnetization      -0.0000000
 augmentation part        0.3740250 magnetization       0.0000625

 Broyden mixing:
  rms(total) = 0.13985E+00    rms(broyden)= 0.13982E+00
  rms(prec ) = 0.27605E+00
  weight for this iteration     100.00

 eigenvalues of (default mixing * dielectric matrix)
  average eigenvalue GAMMA=   1.7639
  2.2814  2.2814  0.7288

 Free energy of the ion-electron system (eV)
  ---------------------------------------------------
  alpha Z        PSCENC =        57.00355031
  Ewald energy   TEWEN  =      -693.14249887
  -Hartree energ DENC   =       -50.34978082
  -exchange      EXHF   =         0.00000000
  -V(xc)+E(xc)   XCENC  =        58.41873847
  PAW double counting   =       255.10938351     -260.21285663
  entropy T*S    EENTRO =         0.00000000
  eigenvalues    EBANDS =         8.45209180
  atomic energy  EATOM  =       588.50889549
  Solvation  Ediel_sol  =         0.00000000
  ---------------------------------------------------
  free energy    TOTEN  =       -36.21247674 eV

  energy without entropy =      -36.21247674  energy(sigma->0) =      -36.21247674


--------------------------------------------------------------------------------------------------------




--------------------------------------- Iteration      1(   9)  ---------------------------------------


    POTLOK:  cpu time    0.0066: real time    0.0073
    SETDIJ:  cpu time    0.0030: real time    0.0030
     EDDAV:  cpu time    0.6762: real time    0.6762
 BZINTS: Fermi energy:  9.939091; 16.000000 electrons
         Band energy:  10.811353;  BLOECHL correction:  0.000000
       DOS:  cpu time    0.0186: real time    0.0186
    CHARGE:  cpu time    0.0181: real time    0.0181
    MIXING:  cpu time    0.0002: real time    0.0002
    --------------------------------------------
      LOOP:  cpu time    0.7227: real time    0.7234

 eigenvalue-minimisations  :  6888
 total energy-change (2. order) :-0.4959525E-01  (-0.1102157E-01)
 number of electron      15.9999991 magnetization       0.0000000
 augmentation part        0.3727257 magnetization      -0.0000062

 Broyden mixing:
  rms(total) = 0.30121E-01    rms(broyden)= 0.30113E-01
  rms(prec ) = 0.55127E-01
  weight for this iteration     100.00

 eigenvalues of (default mixing * dielectric matrix)
  average eigenvalue GAMMA=   1.5826
  2.6722  2.0471  0.9177  0.6933

 Free energy of the ion-electron system (eV)
  ---------------------------------------------------
  alpha Z        PSCENC =        57.00355031
  Ewald energy   TEWEN  =      -693.14249887
  -Hartree energ DENC   =       -53.08282286
  -exchange      EXHF   =         0.00000000
  -V(xc)+E(xc)   XCENC  =        58.67410688
  PAW double counting   =       259.65454936     -264.68920543
  entropy T*S    EENTRO =         0.00000000
  eigenvalues    EBANDS =        10.81135313
  atomic energy  EATOM  =       588.50889549
  Solvation  Ediel_sol  =         0.00000000
  ---------------------------------------------------
  free energy    TOTEN  =       -36.26207199 eV

  energy without entropy =      -36.26207199  energy(sigma->0) =      -36.26207199


--------------------------------------------------------------------------------------------------------




--------------------------------------- Iteration      1(  10)  ---------------------------------------


    POTLOK:  cpu time    0.0066: real time    0.0074
    SETDIJ:  cpu time    0.0030: real time    0.0030
     EDDAV:  cpu time    0.6694: real time    0.6694
 BZINTS: Fermi energy:  9.985030; 16.000000 electrons
         Band energy:  11.456840;  BLOECHL correction:  0.000000
       DOS:  cpu time    0.0186: real time    0.0186
    CHARGE:  cpu time    0.0182: real time    0.0182
    MIXING:  cpu time    0.0002: real time    0.0002
    --------------------------------------------
      LOOP:  cpu time    0.7160: real time    0.7168

 eigenvalue-minimisations  :  6848
 total energy-change (2. order) :-0.1275266E-01  (-0.1650532E-02)
 number of electron      15.9999991 magnetization      -0.0000000
 augmentation part        0.3721833 magnetization       0.0000215

 Broyden mixing:
  rms(total) = 0.93801E-02    rms(broyden)= 0.93763E-02
  rms(prec ) = 0.14539E-01
  weight for this iteration     100.00

 eigenvalues of (default mixing * dielectric matrix)
  average eigenvalue GAMMA=   1.5099
  2.7764  1.9750  1.2970  0.8154  0.6859

 Free energy of the ion-electron system (eV)
  ---------------------------------------------------
  alpha Z        PSCENC =        57.00355031
  Ewald energy   TEWEN  =      -693.14249887
  -Hartree energ DENC   =       -53.80329309
  -exchange      EXHF   =         0.00000000
  -V(xc)+E(xc)   XCENC  =        58.74133727
  PAW double counting   =       261.28021759     -266.31987346
  entropy T*S    EENTRO =         0.00000000
  eigenvalues    EBANDS =        11.45684012
  atomic energy  EATOM  =       588.50889549
  Solvation  Ediel_sol  =         0.00000000
  ---------------------------------------------------
  free energy    TOTEN  =       -36.27482465 eV

  energy without entropy =      -36.27482465  energy(sigma->0) =      -36.27482465


--------------------------------------------------------------------------------------------------------




--------------------------------------- Iteration      1(  11)  ---------------------------------------


    POTLOK:  cpu time    0.0056: real time    0.0072
    SETDIJ:  cpu time    0.0031: real time    0.0031
     EDDAV:  cpu time    0.7309: real time    0.7310
 BZINTS: Fermi energy:  9.991505; 16.000000 electrons
         Band energy:  11.537765;  BLOECHL correction:  0.000000
       DOS:  cpu time    0.0188: real time    0.0188
    CHARGE:  cpu time    0.0184: real time    0.0184
    MIXING:  cpu time    0.0003: real time    0.0003
    --------------------------------------------
      LOOP:  cpu time    0.7772: real time    0.7787

 eigenvalue-minimisations  :  7600
 total energy-change (2. order) :-0.8275656E-03  (-0.6525718E-04)
 number of electron      15.9999991 magnetization       0.0000000
 augmentation part        0.3721144 magnetization      -0.0000559

 Broyden mixing:
  rms(total) = 0.50305E-02    rms(broyden)= 0.50299E-02
  rms(prec ) = 0.75249E-02
  weight for this iteration     100.00

 eigenvalues of (default mixing * dielectric matrix)
  average eigenvalue GAMMA=   1.5635
  2.8287  2.1007  2.1007  0.9567  0.7279  0.6665

 Free energy of the ion-electron system (eV)
  ---------------------------------------------------
  alpha Z        PSCENC =        57.00355031
  Ewald energy   TEWEN  =      -693.14249887
  -Hartree energ DENC   =       -53.88449204
  -exchange      EXHF   =         0.00000000
  -V(xc)+E(xc)   XCENC  =        58.74867824
  PAW double counting   =       261.56400049     -266.61155126
  entropy T*S    EENTRO =         0.00000000
  eigenvalues    EBANDS =        11.53776542
  atomic energy  EATOM  =       588.50889549
  Solvation  Ediel_sol  =         0.00000000
  ---------------------------------------------------
  free energy    TOTEN  =       -36.27565222 eV

  energy without entropy =      -36.27565222  energy(sigma->0) =      -36.27565222


--------------------------------------------------------------------------------------------------------




--------------------------------------- Iteration      1(  12)  ---------------------------------------


    POTLOK:  cpu time    0.0048: real time    0.0076
    SETDIJ:  cpu time    0.0029: real time    0.0029
     EDDAV:  cpu time    0.6688: real time    0.6689
 BZINTS: Fermi energy:  9.988171; 16.000000 electrons
         Band energy:  11.493178;  BLOECHL correction:  0.000000
       DOS:  cpu time    0.0185: real time    0.0185
    CHARGE:  cpu time    0.0182: real time    0.0182
    MIXING:  cpu time    0.0002: real time    0.0002
    --------------------------------------------
      LOOP:  cpu time    0.7135: real time    0.7163

 eigenvalue-minimisations  :  6840
 total energy-change (2. order) :-0.3811043E-03  (-0.1980779E-04)
 number of electron      15.9999991 magnetization      -0.0000000
 augmentation part        0.3721434 magnetization       0.0000007

 Broyden mixing:
  rms(total) = 0.10323E-02    rms(broyden)= 0.10322E-02
  rms(prec ) = 0.14477E-02
  weight for this iteration     100.00

 eigenvalues of (default mixing * dielectric matrix)
  average eigenvalue GAMMA=   1.4998
  2.7510  2.5603  1.9767  1.0467  0.7584  0.7584  0.6470

 Free energy of the ion-electron system (eV)
  ---------------------------------------------------
  alpha Z        PSCENC =        57.00355031
  Ewald energy   TEWEN  =      -693.14249887
  -Hartree energ DENC   =       -53.83277111
  -exchange      EXHF   =         0.00000000
  -V(xc)+E(xc)   XCENC  =        58.74375671
  PAW double counting   =       261.48132825     -266.53147165
  entropy T*S    EENTRO =         0.00000000
  eigenvalues    EBANDS =        11.49317756
  atomic energy  EATOM  =       588.50889549
  Solvation  Ediel_sol  =         0.00000000
  ---------------------------------------------------
  free energy    TOTEN  =       -36.27603332 eV

  energy without entropy =      -36.27603332  energy(sigma->0) =      -36.27603332


--------------------------------------------------------------------------------------------------------




--------------------------------------- Iteration      1(  13)  ---------------------------------------


    POTLOK:  cpu time    0.0053: real time    0.0073
    SETDIJ:  cpu time    0.0032: real time    0.0032
     EDDAV:  cpu time    0.7642: real time    0.7643
 BZINTS: Fermi energy:  9.987194; 16.000000 electrons
         Band energy:  11.479131;  BLOECHL correction:  0.000000
       DOS:  cpu time    0.0185: real time    0.0185
    CHARGE:  cpu time    0.0184: real time    0.0184
    MIXING:  cpu time    0.0003: real time    0.0003
    --------------------------------------------
      LOOP:  cpu time    0.8098: real time    0.8119

 eigenvalue-minimisations  :  8000
 total energy-change (2. order) :-0.1654433E-04  (-0.1228309E-05)
 number of electron      15.9999991 magnetization      -0.0000000
 augmentation part        0.3721565 magnetization      -0.0000026

 Broyden mixing:
  rms(total) = 0.47784E-03    rms(broyden)= 0.47783E-03
  rms(prec ) = 0.10182E-02
  weight for this iteration     100.00

 eigenvalues of (default mixing * dielectric matrix)
  average eigenvalue GAMMA=   1.4483
  2.6950  2.6950  1.9551  1.2370  0.8345  0.8345  0.6925  0.6432

 Free energy of the ion-electron system (eV)
  ---------------------------------------------------
  alpha Z        PSCENC =        57.00355031
  Ewald energy   TEWEN  =      -693.14249887
  -Hartree energ DENC   =       -53.81701276
  -exchange      EXHF   =         0.00000000
  -V(xc)+E(xc)   XCENC  =        58.74225835
  PAW double counting   =       261.44780482     -266.49817821
  entropy T*S    EENTRO =         0.00000000
  eigenvalues    EBANDS =        11.47913101
  atomic energy  EATOM  =       588.50889549
  Solvation  Ediel_sol  =         0.00000000
  ---------------------------------------------------
  free energy    TOTEN  =       -36.27604987 eV

  energy without entropy =      -36.27604987  energy(sigma->0) =      -36.27604987


--------------------------------------------------------------------------------------------------------




--------------------------------------- Iteration      1(  14)  ---------------------------------------


    POTLOK:  cpu time    0.0065: real time    0.0071
    SETDIJ:  cpu time    0.0030: real time    0.0030
     EDDAV:  cpu time    0.5884: real time    0.5884
 BZINTS: Fermi energy:  9.987426; 16.000000 electrons
         Band energy:  11.482386;  BLOECHL correction:  0.000000
       DOS:  cpu time    0.0188: real time    0.0188
    CHARGE:  cpu time    0.0183: real time    0.0183
    MIXING:  cpu time    0.0003: real time    0.0003
    --------------------------------------------
      LOOP:  cpu time    0.6353: real time    0.6359

 eigenvalue-minimisations  :  5496
 total energy-change (2. order) :-0.1161705E-05  (-0.9738397E-07)
 number of electron      15.9999991 magnetization      -0.0000000
 augmentation part        0.3721556 magnetization       0.0000004

 Broyden mixing:
  rms(total) = 0.32052E-03    rms(broyden)= 0.32052E-03
  rms(prec ) = 0.71586E-03
  weight for this iteration     100.00

 eigenvalues of (default mixing * dielectric matrix)
  average eigenvalue GAMMA=   1.4568
  2.7301  2.7301  1.8610  1.8610  0.8932  0.8932  0.8201  0.6839  0.6392

 Free energy of the ion-electron system (eV)
  ---------------------------------------------------
  alpha Z        PSCENC =        57.00355031
  Ewald energy   TEWEN  =      -693.14249887
  -Hartree energ DENC   =       -53.82061827
  -exchange      EXHF   =         0.00000000
  -V(xc)+E(xc)   XCENC  =        58.74257859
  PAW double counting   =       261.45395164     -266.50429607
  entropy T*S    EENTRO =         0.00000000
  eigenvalues    EBANDS =        11.48238615
  atomic energy  EATOM  =       588.50889549
  Solvation  Ediel_sol  =         0.00000000
  ---------------------------------------------------
  free energy    TOTEN  =       -36.27605103 eV

  energy without entropy =      -36.27605103  energy(sigma->0) =      -36.27605103


--------------------------------------------------------------------------------------------------------




--------------------------------------- Iteration      1(  15)  ---------------------------------------


    POTLOK:  cpu time    0.0066: real time    0.0072
    SETDIJ:  cpu time    0.0030: real time    0.0030
     EDDAV:  cpu time    0.5244: real time    0.5245
 BZINTS: Fermi energy:  9.987981; 16.000000 electrons
         Band energy:  11.490090;  BLOECHL correction:  0.000000
       DOS:  cpu time    0.0185: real time    0.0185
    --------------------------------------------
      LOOP:  cpu time    0.5525: real time    0.5531

 eigenvalue-minimisations  :  4560
 total energy-change (2. order) :-0.7089240E-06  (-0.6432172E-07)
 number of electron      15.9999991 magnetization      -0.0000000
 augmentation part        0.3721556 magnetization       0.0000004

 Free energy of the ion-electron system (eV)
  ---------------------------------------------------
  alpha Z        PSCENC =        57.00355031
  Ewald energy   TEWEN  =      -693.14249887
  -Hartree energ DENC   =       -53.82922499
  -exchange      EXHF   =         0.00000000
  -V(xc)+E(xc)   XCENC  =        58.74336718
  PAW double counting   =       261.46940501     -266.51963564
  entropy T*S    EENTRO =         0.00000000
  eigenvalues    EBANDS =        11.49008976
  atomic energy  EATOM  =       588.50889549
  Solvation  Ediel_sol  =         0.00000000
  ---------------------------------------------------
  free energy    TOTEN  =       -36.27605174 eV

  energy without entropy =      -36.27605174  energy(sigma->0) =      -36.27605174


--------------------------------------------------------------------------------------------------------




 average (electrostatic) potential at core
  the test charge radii are     0.6991
  (the norm of the test charge is              1.0000)
       1 -45.4948       2 -45.4948       3 -45.4948       4 -45.4948
 
 
 
 E-fermi :   9.9880     XC(G=0): -13.1781     alpha+bet :-17.5582


 spin component 1

 k-point     1 :       0.0000    0.0000    0.0000
  band No.  band energies     occupation 
      1     -11.7528      1.00000
      2      -6.2188      1.00000
      3      -3.6713      1.00000
      4       6.8713      1.00000
      5       6.8714      1.00000
      6       9.4647      1.00000
      7       9.9510      1.00000
      8       9.9511      1.00000
      9      14.8980      0.00000
     10      14.8981      0.00000
     11      15.2907      0.00000
     12      17.9460      0.00000
     13      19.4188      0.00000
     14      19.4189      0.00000
     15      23.7920      0.00000
     16      27.5527      0.00000

 k-point     2 :       0.0714    0.0000    0.0000
  band No.  band energies     occupation 
      1     -11.6267      1.00000
      2      -6.1050      1.00000
      3      -3.5540      1.00000
      4       6.2284      1.00000
      5       6.6078      1.00000
      6       9.2726      1.00000
      7       9.4025      1.00000
      8       9.7160      1.00000
      9      14.9806      0.00000
     10      15.2399      0.00000
     11      15.5132      0.00000
     12      18.3530      0.00000
     13      19.5441      0.00000
     14      19.8303      0.00000
     15      23.9539      0.00000
     16      27.3937      0.00000

 k-point     3 :       0.1429    0.0000    0.0000
  band No.  band energies     occupation 
      1     -11.2493      1.00000
      2      -5.7642      1.00000
      3      -3.2087      1.00000
      4       4.6475      1.00000
      5       5.9658      1.00000
      6       8.0461      1.00000
      7       8.7412      1.00000
      8       9.1309      1.00000
      9      15.0193      0.00000
     10      16.0076      0.00000
     11      16.0608      0.00000
     12      19.3715      0.00000
     13      19.7655      0.00000
     14      20.8983      0.00000
     15      24.4337      0.00000
     16      25.6796      0.00000

 k-point     4 :       0.2143    0.0000    0.0000
  band No.  band energies     occupation 
      1     -10.6244      1.00000
      2      -5.1993      1.00000
      3      -2.6600      1.00000
      4       2.6733      1.00000
      5       5.2091      1.00000
      6       6.3320      1.00000
      7       7.9218      1.00000
      8       8.4295      1.00000
      9      14.9199      0.00000
     10      16.5799      0.00000
     11      16.9679      0.00000
     12      19.9635      0.00000
     13      20.1448      0.00000
     14      22.3398      0.00000
     15      24.5230      0.00000
     16      25.1541      0.00000

 k-point     5 :       0.2857    0.0000    0.0000
  band No.  band energies     occupation 
      1      -9.7597      1.00000
      2      -4.4161      1.00000
      3      -2.0085      1.00000
      4       0.6906      1.00000
      5       4.5002      1.00000
      6       4.5111      1.00000
      7       6.8674      1.00000
      8       7.7699      1.00000
      9      14.7524      0.00000
     10      17.1705      0.00000
     11      17.6463      0.00000
     12      19.6838      0.00000
     13      20.1091      0.00000
     14      23.8591      0.00000
     15      24.9825      0.00000
     16      25.2093      0.00000

 k-point     6 :       0.3571    0.0000    0.0000
  band No.  band energies     occupation 
      1      -8.6735      1.00000
      2      -3.4274      1.00000
      3      -2.1170      1.00000
      4      -0.3225      1.00000
      5       2.6938      1.00000
      6       3.9702      1.00000
      7       5.6844      1.00000
      8       7.2548      1.00000
      9      14.5786      0.00000
     10      17.7296      0.00000
     11      18.0175      0.00000
     12      18.8132      0.00000
     13      20.2827      0.00000
     14      24.0210      0.00000
     15      25.1901      0.00000
     16      26.7849      0.00000

 k-point     7 :       0.4286    0.0000    0.0000
  band No.  band energies     occupation 
      1      -7.4280      1.00000
      2      -3.6554      1.00000
      3      -2.2755      1.00000
      4       0.2946      1.00000
      5       1.0286      1.00000
      6       3.6302      1.00000
      7       4.5747      1.00000
      8       6.9307      1.00000
      9      14.4457      0.00000
     10      18.1496      0.00000
     11      18.1674      0.00000
     12      18.2169      0.00000
     13      20.5627      0.00000
     14      23.1123      0.00000
     15      26.0960      0.00000
     16      28.4263      0.00000

 k-point     8 :       0.5000    0.0000    0.0000
  band No.  band energies     occupation 
      1      -6.5405      1.00000
      2      -4.7082      1.00000
      3      -1.3919      1.00000
      4      -0.0310      1.00000
      5       0.7289      1.00000
      6       3.5139      1.00000
      7       4.0317      1.00000
      8       6.8182      1.00000
      9      14.3936      0.00000
     10      18.0145      0.00000
     11      18.2010      0.00000
     12      18.2983      0.00000
     13      20.7662      0.00000
     14      22.6697      0.00000
     15      26.3864      0.00000
     16      28.7407      0.00000

 k-point     9 :       0.0714    0.0714    0.0000
  band No.  band energies     occupation 
      1     -11.3749      1.00000
      2      -5.8777      1.00000
      3      -3.3226      1.00000
      4       5.2103      1.00000
      5       6.0505      1.00000
      6       8.5163      1.00000
      7       8.9271      1.00000
      8       9.2443      1.00000
      9      15.2678      0.00000
     10      15.5884      0.00000
     11      15.8757      0.00000
     12      19.0623      0.00000
     13      19.7972      0.00000
     14      20.4762      0.00000
     15      24.2863      0.00000
     16      26.5896      0.00000

 k-point    10 :       0.1429    0.0714    0.0000
  band No.  band energies     occupation 
      1     -10.8737      1.00000
      2      -5.4248      1.00000
      3      -2.8741      1.00000
      4       3.5692      1.00000
      5       5.1863      1.00000
      6       7.0939      1.00000
      7       8.2859      1.00000
      8       8.4875      1.00000
      9      15.4038      0.00000
     10      16.3233      0.00000
     11      16.4342      0.00000
     12      19.9204      0.00000
     13      20.1512      0.00000
     14      21.5267      0.00000
     15      24.9398      0.00000
     16      25.1499      0.00000

 k-point    11 :       0.2143    0.0714    0.0000
  band No.  band energies     occupation 
      1     -10.1285      1.00000
      2      -4.7506      1.00000
      3      -2.2570      1.00000
      4       1.6518      1.00000
      5       4.3595      1.00000
      6       5.3933      1.00000
      7       7.3829      1.00000
      8       7.7342      1.00000
      9      15.3056      0.00000
     10      17.0668      0.00000
     11      17.1117      0.00000
     12      20.0468      0.00000
     13      20.3758      0.00000
     14      22.8979      0.00000
     15      24.7478      0.00000
     16      25.3926      0.00000

 k-point    12 :       0.2857    0.0714    0.0000
  band No.  band energies     occupation 
      1      -9.1511      1.00000
      2      -3.8637      1.00000
      3      -1.7716      1.00000
      4      -0.0204      1.00000
      5       3.6114      1.00000
      6       3.6937      1.00000
      7       6.2768      1.00000
      8       7.1097      1.00000
      9      15.1794      0.00000
     10      17.3159      0.00000
     11      17.7183      0.00000
     12      19.7064      0.00000
     13      20.5021      0.00000
     14      24.2325      0.00000
     15      24.6609      0.00000
     16      25.7190      0.00000

 k-point    13 :       0.3571    0.0714    0.0000
  band No.  band energies     occupation 
      1      -7.9728      1.00000
      2      -2.7980      1.00000
      3      -2.7859      1.00000
      4       0.0089      1.00000
      5       1.8866      1.00000
      6       3.2432      1.00000
      7       5.1056      1.00000
      8       6.6714      1.00000
      9      15.0992      0.00000
     10      16.9333      0.00000
     11      18.3170      0.00000
     12      19.6483      0.00000
     13      20.6571      0.00000
     14      23.5093      0.00000
     15      25.6270      0.00000
     16      27.2598      0.00000

 k-point    14 :       0.4286    0.0714    0.0000
  band No.  band energies     occupation 
      1      -6.7514      1.00000
      2      -4.3037      1.00000
      3      -1.6285      1.00000
      4       0.3916      1.00000
      5       0.6658      1.00000
      6       3.0495      1.00000
      7       4.1694      1.00000
      8       6.4436      1.00000
      9      15.0761      0.00000
     10      16.5752      0.00000
     11      18.6926      0.00000
     12      19.6901      0.00000
     13      20.8838      0.00000
     14      22.7704      0.00000
     15      26.2975      0.00000
     16      28.4808      0.00000

 k-point    15 :       0.1429    0.1429    0.0000
  band No.  band energies     occupation 
      1     -10.2520      1.00000
      2      -4.8625      1.00000
      3      -2.3496      1.00000
      4       2.2498      1.00000
      5       3.9647      1.00000
      6       5.8917      1.00000
      7       7.4835      1.00000
      8       7.5973      1.00000
      9      16.1702      0.00000
     10      16.4303      0.00000
     11      17.0844      0.00000
     12      20.0252      0.00000
     13      20.9272      0.00000
     14      22.0734      0.00000
     15      25.7229      0.00000
     16      25.8213      0.00000

 k-point    16 :       0.2143    0.1429    0.0000
  band No.  band energies     occupation 
      1      -9.3925      1.00000
      2      -4.0839      1.00000
      3      -1.7668      1.00000
      4       0.7449      1.00000
      5       2.9209      1.00000
      6       4.4318      1.00000
      7       6.5642      1.00000
      8       6.6687      1.00000
      9      15.9074      0.00000
     10      17.1958      0.00000
     11      17.8395      0.00000
     12      19.9331      0.00000
     13      21.4025      0.00000
     14      23.0960      0.00000
     15      24.7284      0.00000
[...]
  -------------------------------------------------------------------------------------
  Total       9.32612     9.32612     9.52833    -0.00000     0.00000    -0.00000
  in kB     749.48396   749.48378   765.73422    -0.00000     0.00000    -0.00000
  external pressure =        4.90 kB  Pullay stress =      750.00 kB



--------------------------------------------------------------------------------------------------------



  FREE ENERGIE OF THE ION-ELECTRON SYSTEM (eV)
  ---------------------------------------------------
  free  energy   TOTEN  =       -35.69265993 eV

  energy  without entropy=      -35.69265993  energy(sigma->0) =      -35.69265993
  enthalpy is  TOTEN    =       -26.36011895 eV   P V=        9.33254099

 d Force = 0.2615521E-03[-0.427E-04, 0.566E-03]  d Energy = 0.3061240E-03-0.446E-04
 d Force = 0.2752708E-01[ 0.271E-01, 0.280E-01]  d Ewald  = 0.5004714E-01-0.225E-01


--------------------------------------------------------------------------------------------------------


    POTLOK:  cpu time    0.0069: real time    0.0069


--------------------------------------------------------------------------------------------------------




--------------------------------------------------------------------------------------------------------


    WAVPRE:  cpu time    0.0013: real time    0.0041
    FEWALD:  cpu time    0.0001: real time    0.0001
    GENKIN:  cpu time    0.0029: real time    0.0029
    ORTHCH:  cpu time    0.0284: real time    0.0284
     LOOP+:  cpu time    2.9770: real time    2.9890


--------------------------------------- Iteration      8(   1)  ---------------------------------------


    POTLOK:  cpu time    0.0063: real time    0.0087
    SETDIJ:  cpu time    0.0031: real time    0.0031
     EDDAV:  cpu time    0.7677: real time    0.7677
 BZINTS: Fermi energy: 12.180822; 16.000000 electrons
         Band energy:  30.635109;  BLOECHL correction:  0.000000
       DOS:  cpu time    0.0209: real time    0.0209
    CHARGE:  cpu time    0.0199: real time    0.0199
    MIXING:  cpu time    0.0001: real time    0.0001
    --------------------------------------------
      LOOP:  cpu time    0.8181: real time    0.8205

 eigenvalue-minimisations  :  7816
 total energy-change (2. order) :-0.2480293E-02  (-0.2362722E-04)
 number of electron      16.0000006 magnetization       0.0000000
 augmentation part        0.4253584 magnetization       0.0000008

  free energy =  -0.356951402898E+02  energy without entropy=  -0.356951402898E+02


--------------------------------------------------------------------------------------------------------




--------------------------------------- Iteration      8(   2)  ---------------------------------------


    POTLOK:  cpu time    0.0066: real time    0.0069
    SETDIJ:  cpu time    0.0032: real time    0.0032
     EDDAV:  cpu time    0.7366: real time    0.7367
 BZINTS: Fermi energy: 12.181066; 16.000000 electrons
         Band energy:  30.639160;  BLOECHL correction:  0.000000
       DOS:  cpu time    0.0189: real time    0.0189
    CHARGE:  cpu time    0.0182: real time    0.0182
    MIXING:  cpu time    0.0002: real time    0.0002
    --------------------------------------------
      LOOP:  cpu time    0.7837: real time    0.7841

 eigenvalue-minimisations  :  7584
 total energy-change (2. order) : 0.2624525E-05  (-0.6266276E-06)
 number of electron      16.0000006 magnetization      -0.0000000
 augmentation part        0.4253509 magnetization      -0.0000005

 eigenvalues of (default mixing * dielectric matrix)
  average eigenvalue GAMMA=   2.2327
  2.2327

  free energy =  -0.356951376653E+02  energy without entropy=  -0.356951376653E+02


--------------------------------------------------------------------------------------------------------




--------------------------------------- Iteration      8(   3)  ---------------------------------------


    POTLOK:  cpu time    0.0066: real time    0.0075
    SETDIJ:  cpu time    0.0030: real time    0.0030
     EDDAV:  cpu time    0.7175: real time    0.7175
 BZINTS: Fermi energy: 12.181387; 16.000000 electrons
         Band energy:  30.644432;  BLOECHL correction:  0.000000
       DOS:  cpu time    0.0185: real time    0.0185
    CHARGE:  cpu time    0.0183: real time    0.0183
    MIXING:  cpu time    0.0002: real time    0.0002
    --------------------------------------------
      LOOP:  cpu time    0.7641: real time    0.7651

 eigenvalue-minimisations  :  7376
 total energy-change (2. order) : 0.1550978E-05  (-0.2234965E-06)
 number of electron      16.0000006 magnetization       0.0000000
 augmentation part        0.4253455 magnetization       0.0000013

 eigenvalues of (default mixing * dielectric matrix)
  average eigenvalue GAMMA=   1.4979
  0.7199  2.2758

  free energy =  -0.356951361143E+02  energy without entropy=  -0.356951361143E+02


--------------------------------------------------------------------------------------------------------




--------------------------------------- Iteration      8(   4)  ---------------------------------------


    POTLOK:  cpu time    0.0066: real time    0.0073
    SETDIJ:  cpu time    0.0032: real time    0.0032
     EDDAV:  cpu time    0.4348: real time    0.4349
 BZINTS: Fermi energy: 12.181360; 16.000000 electrons
         Band energy:  30.644095;  BLOECHL correction:  0.000000
       DOS:  cpu time    0.0186: real time    0.0186
    --------------------------------------------
      LOOP:  cpu time    0.4632: real time    0.4640

 eigenvalue-minimisations  :  3280
 total energy-change (2. order) :-0.4550597E-07  (-0.1734083E-07)
 number of electron      16.0000006 magnetization       0.0000000
 augmentation part        0.4253455 magnetization       0.0000013

  free energy =  -0.356951361598E+02  energy without entropy=  -0.356951361598E+02


--------------------------------------------------------------------------------------------------------




------------------------ aborting loop because EDIFF is reached ----------------------------------------


 


 total charge     
 
# of ion       s       p       d       tot
------------------------------------------
    1        0.861   1.889   0.000   2.750
    2        0.860   1.891   0.000   2.752
    3        0.861   1.889   0.000   2.750
    4        0.860   1.891   0.000   2.752
--------------------------------------------------
tot          3.443   7.561   0.000  11.004
 


 magnetization (x)
 
# of ion       s       p       d       tot
------------------------------------------
    1        0.000  -0.000   0.000  -0.000
    2        0.000  -0.000   0.000  -0.000
    3        0.000  -0.000   0.000  -0.000
    4        0.000  -0.000   0.000  -0.000
--------------------------------------------------
tot          0.000  -0.000   0.000  -0.000
 
    CHARGE:  cpu time    0.0191: real time    0.0191
    FORLOC:  cpu time    0.0001: real time    0.0001
    FORNL :  cpu time    0.0260: real time    0.0260
    STRESS:  cpu time    0.0575: real time    0.0575
    FORHAR:  cpu time    0.0004: real time    0.0004
    MIXING:  cpu time    0.0002: real time    0.0002
    OFIELD:  cpu time    0.0000: real time    0.0000

  FORCE on cell =-STRESS in cart. coord.  units (eV):
  Direction    XX          YY          ZZ          XY          YZ          ZX
  --------------------------------------------------------------------------------------
  Alpha Z    65.37468    65.37468    65.37468
  Ewald    -243.00929  -243.00828  -239.56171     0.00084    -0.00000     0.00000
  Hartree    15.98797    15.98798    18.17289     0.00001    -0.00000    -0.00000
  E(xc)     -61.71845   -61.71845   -61.67374     0.00000     0.00000     0.00000
  Local     -17.40669   -17.40724   -22.54835    -0.00048    -0.00000    -0.00000
  n-local   -16.60348   -17.27683   -16.43138    -1.34017    -0.03487     0.07739
  augment    -1.70147    -1.70144    -1.70479     0.00003     0.00000     0.00000
  Kinetic   263.57755   273.90551   267.83239     2.04518     0.64012    -0.85870
  Fock        0.00000     0.00000     0.00000     0.00000     0.00000     0.00000
  -------------------------------------------------------------------------------------
  Total       9.32839     9.32839     9.46000    -0.00000     0.00000    -0.00000
  in kB     749.47145   749.47126   760.04520    -0.00000     0.00000    -0.00000
  external pressure =        3.00 kB  Pullay stress =      750.00 kB



--------------------------------------------------------------------------------------------------------



  FREE ENERGIE OF THE ION-ELECTRON SYSTEM (eV)
  ---------------------------------------------------
  free  energy   TOTEN  =       -35.69513616 eV

  energy  without entropy=      -35.69513616  energy(sigma->0) =      -35.69513616
  enthalpy is  TOTEN    =       -26.36016522 eV   P V=        9.33497094

 d Force = 0.2349748E-07[ 0.179E-07, 0.291E-07]  d Energy = 0.4626679E-04-0.462E-04
 d Force =-0.1855335E-04[-0.187E-04,-0.184E-04]  d Ewald  =-0.6226906E-01 0.623E-01


--------------------------------------------------------------------------------------------------------


    POTLOK:  cpu time    0.0068: real time    0.0068


--------------------------------------------------------------------------------------------------------


 Conjugate gradient step on ions:
 trial-energy change:   -0.000046  1 .order   -0.000047   -0.000057   -0.000036
  (g-gl).g = 0.903E-05      g.g   = 0.143E-04  gl.gl    = 0.200E-03
 g(Force)  = 0.393E-06   g(Stress)= 0.139E-04 ortho     = 0.680E-07
 gamma     =   0.04505
 trial     =   3.98274
 opt step  =  11.05886  (harmonic =  11.05886) maximal distance =0.00000245
 next E    =   -26.360198   (d E  =  -0.00008)


--------------------------------------------------------------------------------------------------------


    WAVPRE:  cpu time    0.0013: real time    0.0037
    FEWALD:  cpu time    0.0001: real time    0.0001
    GENKIN:  cpu time    0.0030: real time    0.0030
    ORTHCH:  cpu time    0.0276: real time    0.0276
     LOOP+:  cpu time    2.9816: real time    2.9920


--------------------------------------- Iteration      9(   1)  ---------------------------------------


    POTLOK:  cpu time    0.0062: real time    0.0089
    SETDIJ:  cpu time    0.0032: real time    0.0032
     EDDAV:  cpu time    0.7514: real time    0.7515
 BZINTS: Fermi energy: 12.169599; 16.000000 electrons
         Band energy:  30.559544;  BLOECHL correction:  0.000000
       DOS:  cpu time    0.0189: real time    0.0189
    CHARGE:  cpu time    0.0179: real time    0.0179
    MIXING:  cpu time    0.0001: real time    0.0001
    --------------------------------------------
      LOOP:  cpu time    0.7978: real time    0.8005

 eigenvalue-minimisations  :  7808
 total energy-change (2. order) :-0.4362162E-02  (-0.7534665E-04)
 number of electron      16.0000006 magnetization       0.0000000
 augmentation part        0.4251873 magnetization       0.0000003

  free energy =  -0.356994982761E+02  energy without entropy=  -0.356994982761E+02


--------------------------------------------------------------------------------------------------------




--------------------------------------- Iteration      9(   2)  ---------------------------------------


    POTLOK:  cpu time    0.0066: real time    0.0074
    SETDIJ:  cpu time    0.0031: real time    0.0031
     EDDAV:  cpu time    0.7327: real time    0.7327
 BZINTS: Fermi energy: 12.170028; 16.000000 electrons
         Band energy:  30.566731;  BLOECHL correction:  0.000000
       DOS:  cpu time    0.0190: real time    0.0190
    CHARGE:  cpu time    0.0184: real time    0.0184
    MIXING:  cpu time    0.0001: real time    0.0001
    --------------------------------------------
      LOOP:  cpu time    0.7799: real time    0.7807

 eigenvalue-minimisations  :  7600
 total energy-change (2. order) : 0.8115647E-05  (-0.2005924E-05)
 number of electron      16.0000006 magnetization      -0.0000000
 augmentation part        0.4251743 magnetization      -0.0000002

 eigenvalues of (default mixing * dielectric matrix)
  average eigenvalue GAMMA=   2.3484
  2.3484

  free energy =  -0.356994901604E+02  energy without entropy=  -0.356994901604E+02


--------------------------------------------------------------------------------------------------------




--------------------------------------- Iteration      9(   3)  ---------------------------------------


    POTLOK:  cpu time    0.0068: real time    0.0074
    SETDIJ:  cpu time    0.0032: real time    0.0032
     EDDAV:  cpu time    0.7761: real time    0.7762
 BZINTS: Fermi energy: 12.170586; 16.000000 electrons
         Band energy:  30.576114;  BLOECHL correction:  0.000000
       DOS:  cpu time    0.0186: real time    0.0186
    CHARGE:  cpu time    0.0182: real time    0.0182
    MIXING:  cpu time    0.0002: real time    0.0002
    --------------------------------------------
      LOOP:  cpu time    0.8230: real time    0.8237

 eigenvalue-minimisations  :  8048
 total energy-change (2. order) : 0.4471105E-05  (-0.7092132E-06)
 number of electron      16.0000006 magnetization       0.0000000
 augmentation part        0.4251645 magnetization       0.0000005

 eigenvalues of (default mixing * dielectric matrix)
  average eigenvalue GAMMA=   1.6331
  1.0861  2.1801

  free energy =  -0.356994856893E+02  energy without entropy=  -0.356994856893E+02


--------------------------------------------------------------------------------------------------------




--------------------------------------- Iteration      9(   4)  ---------------------------------------


    POTLOK:  cpu time    0.0068: real time    0.0074
    SETDIJ:  cpu time    0.0030: real time    0.0030
     EDDAV:  cpu time    0.4482: real time    0.4482
 BZINTS: Fermi energy: 12.170532; 16.000000 electrons
         Band energy:  30.575363;  BLOECHL correction:  0.000000
       DOS:  cpu time    0.0189: real time    0.0189
    --------------------------------------------
      LOOP:  cpu time    0.4769: real time    0.4776

 eigenvalue-minimisations  :  3456
 total energy-change (2. order) :-0.8035968E-08  (-0.5182277E-07)
 number of electron      16.0000006 magnetization       0.0000000
 augmentation part        0.4251645 magnetization       0.0000005

  free energy =  -0.356994856973E+02  energy without entropy=  -0.356994856973E+02


--------------------------------------------------------------------------------------------------------




------------------------ aborting loop because EDIFF is reached ----------------------------------------


 


 total charge     
 
# of ion       s       p       d       tot
------------------------------------------
    1        0.861   1.888   0.000   2.750
    2        0.860   1.891   0.000   2.751
    3        0.861   1.888   0.000   2.750
    4        0.860   1.891   0.000   2.751
--------------------------------------------------
tot          3.443   7.558   0.000  11.001
 


 magnetization (x)
 
# of ion       s       p       d       tot
------------------------------------------
    1        0.000  -0.000   0.000  -0.000
    2        0.000  -0.000   0.000  -0.000
    3        0.000  -0.000   0.000  -0.000
    4        0.000  -0.000   0.000  -0.000
--------------------------------------------------
tot          0.000  -0.000   0.000  -0.000
 
    CHARGE:  cpu time    0.0191: real time    0.0191
    FORLOC:  cpu time    0.0001: real time    0.0001
    FORNL :  cpu time    0.0254: real time    0.0254
    STRESS:  cpu time    0.0574: real time    0.0574
    FORHAR:  cpu time    0.0004: real time    0.0004
    MIXING:  cpu time    0.0002: real time    0.0002
    OFIELD:  cpu time    0.0000: real time    0.0000

  FORCE on cell =-STRESS in cart. coord.  units (eV):
  Direction    XX          YY          ZZ          XY          YZ          ZX
  --------------------------------------------------------------------------------------
  Alpha Z    65.34446    65.34446    65.34446
  Ewald    -242.86202  -242.86101  -239.74559     0.00084     0.00000     0.00000
  Hartree    16.02002    16.02003    18.11837     0.00001    -0.00000    -0.00000
  E(xc)     -61.71129   -61.71129   -61.66709     0.00000     0.00000     0.00000
  Local     -17.54772   -17.54826   -22.31128    -0.00048    -0.00000    -0.00000
  n-local   -16.59845   -17.27260   -16.41285    -1.33992    -0.03485     0.07730
  augment    -1.70045    -1.70043    -1.70357     0.00003     0.00000    -0.00000
  Kinetic   263.56063   273.88684   267.71887     2.05443     0.63594    -0.86075
  Fock        0.00000     0.00000     0.00000     0.00000     0.00000     0.00000
  -------------------------------------------------------------------------------------
  Total       9.33146     9.33146     9.34132    -0.00000     0.00000    -0.00000
  in kB     749.37148   749.37128   750.16325    -0.00000     0.00000    -0.00000
  external pressure =       -0.36 kB  Pullay stress =      750.00 kB



--------------------------------------------------------------------------------------------------------



  FREE ENERGIE OF THE ION-ELECTRON SYSTEM (eV)
  ---------------------------------------------------
  free  energy   TOTEN  =       -35.69948570 eV

  energy  without entropy=      -35.69948570  energy(sigma->0) =      -35.69948570
  enthalpy is  TOTEN    =       -26.36019783 eV   P V=        9.33928787

 d Force = 0.1540147E-07[-0.101E-08, 0.318E-07]  d Energy = 0.3261591E-04-0.326E-04
 d Force =-0.3354886E-04[-0.339E-04,-0.332E-04]  d Ewald  =-0.1106640E+00 0.111E+00


--------------------------------------------------------------------------------------------------------


    POTLOK:  cpu time    0.0068: real time    0.0068


--------------------------------------------------------------------------------------------------------




--------------------------------------------------------------------------------------------------------


  
 reached required accuracy - stopping structural energy minimisation
     LOOP+:  cpu time    2.9977: real time    3.0082
    4ORBIT:  cpu time    0.0000: real time    0.0000
 


 total charge     
 
# of ion       s       p       d       tot
------------------------------------------
    1        0.861   1.888   0.000   2.750
    2        0.860   1.891   0.000   2.751
    3        0.861   1.888   0.000   2.750
    4        0.860   1.891   0.000   2.751
--------------------------------------------------
tot          3.443   7.558   0.000  11.001
 


 magnetization (x)
 
# of ion       s       p       d       tot
------------------------------------------
    1        0.000  -0.000   0.000  -0.000
    2        0.000  -0.000   0.000  -0.000
    3        0.000  -0.000   0.000  -0.000
    4        0.000  -0.000   0.000  -0.000
--------------------------------------------------
tot          0.000  -0.000   0.000  -0.000
 
 BZINTS: Fermi energy: 12.170532; 16.000000 electrons
         Band energy:  30.575363;  BLOECHL correction:  0.000000

 total amount of memory used by VASP MPI-rank0    32838. kBytes
=======================================================================

   base      :      30000. kBytes
   nonl-proj :        720. kBytes
   fftplans  :        179. kBytes
   grid      :        410. kBytes
   one-center:          6. kBytes
   wavefun   :       1523. kBytes
 
  
  
 General timing and accounting informations for this job:
 ========================================================
  
                  Total CPU time used (sec):       39.027
                            User time (sec):       38.975
                          System time (sec):        0.052
                         Elapsed time (sec):       39.159
  
                   Maximum memory used (kb):       63568.
                   Average memory used (kb):           0.
  
                          Minor page faults:         6631
                          Major page faults:          259
                 Voluntary context switches:          600
