PROCAR lm decomposed
# of k-points:   96         # of bands:   16         # of ions:    4

 k-point     1 :    0.00000000 0.00000000 0.00000000     weight = 0.00085034

band     1 # energy  -11.59302636 # occ.  1.00000000
 
ion      s     py     pz     px    dxy    dyz    dz2    dxz  x2-y2    tot
    1  0.149  0.000  0.000  0.000  0.000  0.000  0.000  0.000  0.000  0.149
    2  0.149  0.000  0.000  0.000  0.000  0.000  0.000  0.000  0.000  0.149
    3  0.149  0.000  0.000  0.000  0.000  0.000  0.000  0.000  0.000  0.149
    4  0.149  0.000  0.000  0.000  0.000  0.000  0.000  0.000  0.000  0.149
tot    0.597  0.000  0.000  0.000  0.000  0.000  0.000  0.000  0.000  0.597
 
band     2 # energy   -5.26759764 # occ.  1.00000000
 
ion      s     py     pz     px    dxy    dyz    dz2    dxz  x2-y2    tot
    1  0.156  0.000  0.018  0.000  0.000  0.000  0.000  0.000  0.000  0.174
    2  0.156  0.000  0.018  0.000  0.000  0.000  0.000  0.000  0.000  0.174
    3  0.156  0.000  0.018  0.000  0.000  0.000  0.000  0.000  0.000  0.174
    4  0.156  0.000  0.018  0.000  0.000  0.000  0.000  0.000  0.000  0.174
tot    0.626  0.000  0.071  0.000  0.000  0.000  0.000  0.000  0.000  0.697
 
band     3 # energy   -3.24160452 # occ.  1.00000000
 
ion      s     py     pz     px    dxy    dyz    dz2    dxz  x2-y2    tot
    1  0.038  0.000  0.102  0.000  0.000  0.000  0.000  0.000  0.000  0.140
    2  0.038  0.000  0.102  0.000  0.000  0.000  0.000  0.000  0.000  0.140
    3  0.038  0.000  0.102  0.000  0.000  0.000  0.000  0.000  0.000  0.140
    4  0.038  0.000  0.102  0.000  0.000  0.000  0.000  0.000  0.000  0.140
tot    0.153  0.000  0.406  0.000  0.000  0.000  0.000  0.000  0.000  0.559
 
band     4 # energy    8.59429880 # occ.  1.00000000
 
ion      s     py     pz     px    dxy    dyz    dz2    dxz  x2-y2    tot
    1  0.000  0.144  0.000  0.048  0.000  0.000  0.000  0.000  0.000  0.192
    2  0.000  0.144  0.000  0.048  0.000  0.000  0.000  0.000  0.000  0.192
    3  0.000  0.144  0.000  0.048  0.000  0.000  0.000  0.000  0.000  0.192
    4  0.000  0.144  0.000  0.048  0.000  0.000  0.000  0.000  0.000  0.192
tot    0.000  0.576  0.000  0.194  0.000  0.000  0.000  0.000  0.000  0.770
 
band     5 # energy    8.59438978 # occ.  1.00000000
 
ion      s     py     pz     px    dxy    dyz    dz2    dxz  x2-y2    tot
    1  0.000  0.048  0.000  0.144  0.000  0.000  0.000  0.000  0.000  0.192
    2  0.000  0.048  0.000  0.144  0.000  0.000  0.000  0.000  0.000  0.192
    3  0.000  0.048  0.000  0.144  0.000  0.000  0.000  0.000  0.000  0.192
    4  0.000  0.048  0.000  0.144  0.000  0.000  0.000  0.000  0.000  0.192
tot    0.000  0.194  0.000  0.576  0.000  0.000  0.000  0.000  0.000  0.770
 
band     6 # energy   11.40789852 # occ.  1.00000000
 
ion      s     py     pz     px    dxy    dyz    dz2    dxz  x2-y2    tot
    1  0.000  0.000  0.197  0.000  0.000  0.000  0.000  0.000  0.000  0.197
    2  0.000  0.000  0.197  0.000  0.000  0.000  0.000  0.000  0.000  0.197
    3  0.000  0.000  0.197  0.000  0.000  0.000  0.000  0.000  0.000  0.197
    4  0.000  0.000  0.197  0.000  0.000  0.000  0.000  0.000  0.000  0.197
tot    0.000  0.000  0.788  0.000  0.000  0.000  0.000  0.000  0.000  0.788
 
band     7 # energy   12.11888030 # occ.  1.00000000
 
ion      s     py     pz     px    dxy    dyz    dz2    dxz  x2-y2    tot
    1  0.000  0.154  0.000  0.051  0.000  0.000  0.000  0.000  0.000  0.206
    2  0.000  0.154  0.000  0.051  0.000  0.000  0.000  0.000  0.000  0.206
    3  0.000  0.154  0.000  0.051  0.000  0.000  0.000  0.000  0.000  0.206
    4  0.000  0.154  0.000  0.051  0.000  0.000  0.000  0.000  0.000  0.206
tot    0.000  0.618  0.000  0.206  0.000  0.000  0.000  0.000  0.000  0.824
 
band     8 # energy   12.11898357 # occ.  1.00000000
 
ion      s     py     pz     px    dxy    dyz    dz2    dxz  x2-y2    tot
    1  0.000  0.051  0.000  0.154  0.000  0.000  0.000  0.000  0.000  0.206
    2  0.000  0.051  0.000  0.154  0.000  0.000  0.000  0.000  0.000  0.206
    3  0.000  0.051  0.000  0.154  0.000  0.000  0.000  0.000  0.000  0.206
    4  0.000  0.051  0.000  0.154  0.000  0.000  0.000  0.000  0.000  0.206
tot    0.000  0.206  0.000  0.618  0.000  0.000  0.000  0.000  0.000  0.824
 
band     9 # energy   17.24285140 # occ.  0.00000000
 
ion      s     py     pz     px    dxy    dyz    dz2    dxz  x2-y2    tot
    1  0.000  0.034  0.000  0.109  0.000  0.000  0.000  0.000  0.000  0.144
    2  0.000  0.034  0.000  0.109  0.000  0.000  0.000  0.000  0.000  0.144
    3  0.000  0.034  0.000  0.109  0.000  0.000  0.000  0.000  0.000  0.144
    4  0.000  0.034  0.000  0.109  0.000  0.000  0.000  0.000  0.000  0.144
tot    0.000  0.138  0.000  0.437  0.000  0.000  0.000  0.000  0.000  0.574
 
band    10 # energy   17.24294829 # occ.  0.00000000
 
ion      s     py     pz     px    dxy    dyz    dz2    dxz  x2-y2    tot
    1  0.000  0.109  0.000  0.034  0.000  0.000  0.000  0.000  0.000  0.144
    2  0.000  0.109  0.000  0.034  0.000  0.000  0.000  0.000  0.000  0.144
    3  0.000  0.109  0.000  0.034  0.000  0.000  0.000  0.000  0.000  0.144
    4  0.000  0.109  0.000  0.034  0.000  0.000  0.000  0.000  0.000  0.144
tot    0.000  0.437  0.000  0.138  0.000  0.000  0.000  0.000  0.000  0.574
 
band    11 # energy   17.78702243 # occ.  0.00000000
 
ion      s     py     pz     px    dxy    dyz    dz2    dxz  x2-y2    tot
    1  0.002  0.000  0.151  0.000  0.000  0.000  0.000  0.000  0.000  0.153
    2  0.002  0.000  0.151  0.000  0.000  0.000  0.000  0.000  0.000  0.153
    3  0.002  0.000  0.151  0.000  0.000  0.000  0.000  0.000  0.000  0.153
    4  0.002  0.000  0.151  0.000  0.000  0.000  0.000  0.000  0.000  0.153
tot    0.009  0.000  0.604  0.000  0.000  0.000  0.000  0.000  0.000  0.612
 
band    12 # energy   21.87568390 # occ.  0.00000000
 
ion      s     py     pz     px    dxy    dyz    dz2    dxz  x2-y2    tot
    1  0.142  0.000  0.007  0.000  0.000  0.000  0.000  0.000  0.000  0.149
    2  0.142  0.000  0.007  0.000  0.000  0.000  0.000  0.000  0.000  0.149
    3  0.142  0.000  0.007  0.000  0.000  0.000  0.000  0.000  0.000  0.149
    4  0.142  0.000  0.007  0.000  0.000  0.000  0.000  0.000  0.000  0.149
tot    0.568  0.000  0.029  0.000  0.000  0.000  0.000  0.000  0.000  0.597
 
band    13 # energy   22.42152576 # occ.  0.00000000
 
ion      s     py     pz     px    dxy    dyz    dz2    dxz  x2-y2    tot
    1  0.000  0.038  0.000  0.119  0.000  0.000  0.000  0.000  0.000  0.157
    2  0.000  0.038  0.000  0.119  0.000  0.000  0.000  0.000  0.000  0.157
    3  0.000  0.038  0.000  0.119  0.000  0.000  0.000  0.000  0.000  0.157
    4  0.000  0.038  0.000  0.119  0.000  0.000  0.000  0.000  0.000  0.157
tot    0.000  0.152  0.000  0.477  0.000  0.000  0.000  0.000  0.000  0.629
 
band    14 # energy   22.42164799 # occ.  0.00000000
 
ion      s     py     pz     px    dxy    dyz    dz2    dxz  x2-y2    tot
    1  0.000  0.119  0.000  0.038  0.000  0.000  0.000  0.000  0.000  0.157
    2  0.000  0.119  0.000  0.038  0.000  0.000  0.000  0.000  0.000  0.157
    3  0.000  0.119  0.000  0.038  0.000  0.000  0.000  0.000  0.000  0.157
    4  0.000  0.119  0.000  0.038  0.000  0.000  0.000  0.000  0.000  0.157
tot    0.000  0.477  0.000  0.152  0.000  0.000  0.000  0.000  0.000  0.629
 
band    15 # energy   29.59319024 # occ.  0.00000000
 
ion      s     py     pz     px    dxy    dyz    dz2    dxz  x2-y2    tot
    1  0.212  0.000  0.004  0.000  0.000  0.000  0.000  0.000  0.000  0.215
    2  0.212  0.000  0.004  0.000  0.000  0.000  0.000  0.000  0.000  0.215
    3  0.212  0.000  0.004  0.000  0.000  0.000  0.000  0.000  0.000  0.215
    4  0.212  0.000  0.004  0.000  0.000  0.000  0.000  0.000  0.000  0.215
tot    0.846  0.000  0.015  0.000  0.000  0.000  0.000  0.000  0.000  0.861
 
band    16 # energy   31.01303651 # occ.  0.00000000
 
ion      s     py     pz     px    dxy    dyz    dz2    dxz  x2-y2    tot
    1  0.047  0.000  0.000  0.000  0.000  0.000  0.000  0.000  0.000  0.047
    2  0.047  0.000  0.000  0.000  0.000  0.000  0.000  0.000  0.000  0.047
    3  0.047  0.000  0.000  0.000  0.000  0.000  0.000  0.000  0.000  0.047
    4  0.047  0.000  0.000  0.000  0.000  0.000  0.000  0.000  0.000  0.047
tot    0.189  0.000  0.001  0.000  0.000  0.000  0.000  0.000  0.000  0.190
 

 k-point     2 :    0.07142857 0.00000000 0.00000000     weight = 0.00510204

band     1 # energy  -11.45464542 # occ.  1.00000000
 
ion      s     py     pz     px    dxy    dyz    dz2    dxz  x2-y2    tot
    1  0.148  0.000  0.000  0.001  0.000  0.000  0.000  0.000  0.000  0.149
    2  0.148  0.000  0.000  0.001  0.000  0.000  0.000  0.000  0.000  0.149
    3  0.148  0.000  0.000  0.001  0.000  0.000  0.000  0.000  0.000  0.149
    4  0.148  0.000  0.000  0.001  0.000  0.000  0.000  0.000  0.000  0.149
tot    0.593  0.001  0.000  0.003  0.000  0.000  0.000  0.000  0.000  0.598
 
band     2 # energy   -5.14502033 # occ.  1.00000000
 
ion      s     py     pz     px    dxy    dyz    dz2    dxz  x2-y2    tot
    1  0.155  0.000  0.018  0.001  0.000  0.000  0.000  0.000  0.000  0.175
    2  0.155  0.000  0.018  0.001  0.000  0.000  0.000  0.000  0.000  0.175
    3  0.155  0.000  0.018  0.001  0.000  0.000  0.000  0.000  0.000  0.175
    4  0.155  0.000  0.018  0.001  0.000  0.000  0.000  0.000  0.000  0.175
tot    0.621  0.001  0.071  0.004  0.000  0.000  0.000  0.000  0.000  0.698
 
band     3 # energy   -3.10759675 # occ.  1.00000000
 
ion      s     py     pz     px    dxy    dyz    dz2    dxz  x2-y2    tot
    1  0.038  0.000  0.102  0.000  0.000  0.000  0.000  0.000  0.000  0.140
    2  0.038  0.000  0.102  0.000  0.000  0.000  0.000  0.000  0.000  0.140
    3  0.038  0.000  0.102  0.000  0.000  0.000  0.000  0.000  0.000  0.140
    4  0.038  0.000  0.102  0.000  0.000  0.000  0.000  0.000  0.000  0.140
tot    0.153  0.000  0.407  0.000  0.000  0.000  0.000  0.000  0.000  0.561
 
band     4 # energy    7.90530866 # occ.  1.00000000
 
ion      s     py     pz     px    dxy    dyz    dz2    dxz  x2-y2    tot
    1  0.008  0.045  0.000  0.135  0.000  0.000  0.000  0.000  0.000  0.188
    2  0.008  0.045  0.000  0.135  0.000  0.000  0.000  0.000  0.000  0.188
    3  0.008  0.045  0.000  0.135  0.000  0.000  0.000  0.000  0.000  0.188
    4  0.008  0.045  0.000  0.135  0.000  0.000  0.000  0.000  0.000  0.188
tot    0.032  0.180  0.001  0.540  0.000  0.000  0.000  0.000  0.000  0.753
 
band     5 # energy    8.28676091 # occ.  1.00000000
 
ion      s     py     pz     px    dxy    dyz    dz2    dxz  x2-y2    tot
    1  0.000  0.143  0.000  0.048  0.000  0.000  0.000  0.000  0.000  0.190
    2  0.000  0.143  0.000  0.048  0.000  0.000  0.000  0.000  0.000  0.190
    3  0.000  0.143  0.000  0.048  0.000  0.000  0.000  0.000  0.000  0.190
    4  0.000  0.143  0.000  0.048  0.000  0.000  0.000  0.000  0.000  0.190
tot    0.000  0.570  0.000  0.190  0.000  0.000  0.000  0.000  0.000  0.760
 
band     6 # energy   11.19360243 # occ.  1.00000000
 
ion      s     py     pz     px    dxy    dyz    dz2    dxz  x2-y2    tot
    1  0.000  0.001  0.191  0.003  0.000  0.000  0.000  0.000  0.000  0.196
    2  0.000  0.001  0.191  0.003  0.000  0.000  0.000  0.000  0.000  0.196
    3  0.000  0.001  0.191  0.003  0.000  0.000  0.000  0.000  0.000  0.196
    4  0.000  0.001  0.191  0.003  0.000  0.000  0.000  0.000  0.000  0.196
tot    0.000  0.004  0.766  0.013  0.000  0.000  0.000  0.000  0.000  0.784
 
band     7 # energy   11.52128894 # occ.  1.00000000
 
ion      s     py     pz     px    dxy    dyz    dz2    dxz  x2-y2    tot
    1  0.005  0.048  0.004  0.145  0.000  0.000  0.000  0.000  0.000  0.203
    2  0.005  0.048  0.004  0.145  0.000  0.000  0.000  0.000  0.000  0.203
    3  0.005  0.048  0.004  0.145  0.000  0.000  0.000  0.000  0.000  0.203
    4  0.005  0.048  0.004  0.145  0.000  0.000  0.000  0.000  0.000  0.203
tot    0.019  0.194  0.018  0.582  0.000  0.000  0.000  0.000  0.000  0.812
 
band     8 # energy   11.84597029 # occ.  1.00000000
 
ion      s     py     pz     px    dxy    dyz    dz2    dxz  x2-y2    tot
    1  0.000  0.153  0.000  0.051  0.000  0.000  0.000  0.000  0.000  0.204
    2  0.000  0.153  0.000  0.051  0.000  0.000  0.000  0.000  0.000  0.204
    3  0.000  0.153  0.000  0.051  0.000  0.000  0.000  0.000  0.000  0.204
    4  0.000  0.153  0.000  0.051  0.000  0.000  0.000  0.000  0.000  0.204
tot    0.000  0.613  0.000  0.204  0.000  0.000  0.000  0.000  0.000  0.817
 
band     9 # energy   17.35943355 # occ.  0.00000000
 
ion      s     py     pz     px    dxy    dyz    dz2    dxz  x2-y2    tot
    1  0.005  0.033  0.005  0.099  0.000  0.000  0.000  0.000  0.000  0.142
    2  0.005  0.033  0.005  0.099  0.000  0.000  0.000  0.000  0.000  0.142
    3  0.005  0.033  0.005  0.099  0.000  0.000  0.000  0.000  0.000  0.142
    4  0.005  0.033  0.005  0.099  0.000  0.000  0.000  0.000  0.000  0.142
tot    0.021  0.132  0.020  0.395  0.000  0.000  0.000  0.000  0.000  0.568
 
band    10 # energy   17.64005262 # occ.  0.00000000
 
ion      s     py     pz     px    dxy    dyz    dz2    dxz  x2-y2    tot
    1  0.000  0.110  0.000  0.037  0.000  0.000  0.000  0.000  0.000  0.147
    2  0.000  0.110  0.000  0.037  0.000  0.000  0.000  0.000  0.000  0.147
    3  0.000  0.110  0.000  0.037  0.000  0.000  0.000  0.000  0.000  0.147
    4  0.000  0.110  0.000  0.037  0.000  0.000  0.000  0.000  0.000  0.147
tot    0.000  0.440  0.000  0.147  0.000  0.000  0.000  0.000  0.000  0.586
 
band    11 # energy   18.06072129 # occ.  0.00000000
 
ion      s     py     pz     px    dxy    dyz    dz2    dxz  x2-y2    tot
    1  0.004  0.001  0.146  0.003  0.000  0.000  0.000  0.000  0.000  0.154
    2  0.004  0.001  0.146  0.003  0.000  0.000  0.000  0.000  0.000  0.154
    3  0.004  0.001  0.146  0.003  0.000  0.000  0.000  0.000  0.000  0.154
    4  0.004  0.001  0.146  0.003  0.000  0.000  0.000  0.000  0.000  0.154
tot    0.015  0.004  0.586  0.013  0.000  0.000  0.000  0.000  0.000  0.618
 
band    12 # energy   22.27196468 # occ.  0.00000000
 
ion      s     py     pz     px    dxy    dyz    dz2    dxz  x2-y2    tot
    1  0.132  0.003  0.008  0.009  0.000  0.000  0.000  0.000  0.000  0.152
    2  0.132  0.003  0.008  0.009  0.000  0.000  0.000  0.000  0.000  0.152
    3  0.132  0.003  0.008  0.009  0.000  0.000  0.000  0.000  0.000  0.152
    4  0.132  0.003  0.008  0.009  0.000  0.000  0.000  0.000  0.000  0.152
tot    0.529  0.012  0.030  0.035  0.000  0.000  0.000  0.000  0.000  0.606
 
band    13 # energy   22.57061930 # occ.  0.00000000
 
ion      s     py     pz     px    dxy    dyz    dz2    dxz  x2-y2    tot
    1  0.003  0.038  0.001  0.114  0.000  0.000  0.000  0.000  0.000  0.156
    2  0.003  0.038  0.001  0.114  0.000  0.000  0.000  0.000  0.000  0.156
    3  0.003  0.038  0.001  0.114  0.000  0.000  0.000  0.000  0.000  0.156
    4  0.003  0.038  0.001  0.114  0.000  0.000  0.000  0.000  0.000  0.156
tot    0.013  0.152  0.003  0.455  0.000  0.000  0.000  0.000  0.000  0.624
 
band    14 # energy   22.89842448 # occ.  0.00000000
 
ion      s     py     pz     px    dxy    dyz    dz2    dxz  x2-y2    tot
    1  0.000  0.120  0.000  0.040  0.000  0.000  0.000  0.000  0.000  0.160
    2  0.000  0.120  0.000  0.040  0.000  0.000  0.000  0.000  0.000  0.160
    3  0.000  0.120  0.000  0.040  0.000  0.000  0.000  0.000  0.000  0.160
    4  0.000  0.120  0.000  0.040  0.000  0.000  0.000  0.000  0.000  0.160
tot    0.000  0.481  0.000  0.160  0.000  0.000  0.000  0.000  0.000  0.641
 
band    15 # energy   29.70424474 # occ.  0.00000000
 
ion      s     py     pz     px    dxy    dyz    dz2    dxz  x2-y2    tot
    1  0.204  0.002  0.004  0.006  0.000  0.000  0.000  0.000  0.000  0.215
    2  0.204  0.002  0.004  0.006  0.000  0.000  0.000  0.000  0.000  0.215
    3  0.204  0.002  0.004  0.006  0.000  0.000  0.000  0.000  0.000  0.215
    4  0.204  0.002  0.004  0.006  0.000  0.000  0.000  0.000  0.000  0.215
tot    0.815  0.008  0.016  0.023  0.000  0.000  0.000  0.000  0.000  0.861
 
band    16 # energy   30.34400151 # occ.  0.00000000
 
ion      s     py     pz     px    dxy    dyz    dz2    dxz  x2-y2    tot
    1  0.011  0.003  0.002  0.009  0.000  0.000  0.000  0.000  0.000  0.025
    2  0.011  0.003  0.002  0.009  0.000  0.000  0.000  0.000  0.000  0.025
    3  0.011  0.003  0.002  0.009  0.000  0.000  0.000  0.000  0.000  0.025
    4  0.011  0.003  0.002  0.009  0.000  0.000  0.000  0.000  0.000  0.025
tot    0.045  0.012  0.008  0.036  0.000  0.000  0.000  0.000  0.000  0.101
 

 k-point     3 :    0.14285714 0.00000000 0.00000000     weight = 0.00510204

band     1 # energy  -11.04036284 # occ.  1.00000000
 
ion      s     py     pz     px    dxy    dyz    dz2    dxz  x2-y2    tot
    1  0.146  0.001  0.000  0.003  0.000  0.000  0.000  0.000  0.000  0.150
    2  0.146  0.001  0.000  0.003  0.000  0.000  0.000  0.000  0.000  0.150
    3  0.146  0.001  0.000  0.003  0.000  0.000  0.000  0.000  0.000  0.150
    4  0.146  0.001  0.000  0.003  0.000  0.000  0.000  0.000  0.000  0.150
tot    0.584  0.004  0.000  0.012  0.000  0.000  0.000  0.000  0.000  0.600
 
band     2 # energy   -4.77795775 # occ.  1.00000000
 
ion      s     py     pz     px    dxy    dyz    dz2    dxz  x2-y2    tot
    1  0.152  0.001  0.018  0.004  0.000  0.000  0.000  0.000  0.000  0.175
    2  0.152  0.001  0.018  0.004  0.000  0.000  0.000  0.000  0.000  0.175
    3  0.152  0.001  0.018  0.004  0.000  0.000  0.000  0.000  0.000  0.175
    4  0.152  0.001  0.018  0.004  0.000  0.000  0.000  0.000  0.000  0.175
tot    0.606  0.006  0.071  0.017  0.000  0.000  0.000  0.000  0.000  0.701
 
band     3 # energy   -2.71025081 # occ.  1.00000000
 
ion      s     py     pz     px    dxy    dyz    dz2    dxz  x2-y2    tot
    1  0.039  0.000  0.102  0.000  0.000  0.000  0.000  0.000  0.000  0.142
    2  0.039  0.000  0.102  0.000  0.000  0.000  0.000  0.000  0.000  0.142
    3  0.039  0.000  0.102  0.000  0.000  0.000  0.000  0.000  0.000  0.142
    4  0.039  0.000  0.102  0.000  0.000  0.000  0.000  0.000  0.000  0.142
tot    0.156  0.000  0.409  0.001  0.000  0.000  0.000  0.000  0.000  0.567
 
band     4 # energy    6.18918430 # occ.  1.00000000
 
ion      s     py     pz     px    dxy    dyz    dz2    dxz  x2-y2    tot
    1  0.023  0.039  0.001  0.117  0.000  0.000  0.000  0.000  0.000  0.180
    2  0.023  0.039  0.001  0.117  0.000  0.000  0.000  0.000  0.000  0.180
    3  0.023  0.039  0.001  0.117  0.000  0.000  0.000  0.000  0.000  0.180
    4  0.023  0.039  0.001  0.117  0.000  0.000  0.000  0.000  0.000  0.180
tot    0.093  0.156  0.004  0.467  0.000  0.000  0.000  0.000  0.000  0.720
 
band     5 # energy    7.54652311 # occ.  1.00000000
 
ion      s     py     pz     px    dxy    dyz    dz2    dxz  x2-y2    tot
    1  0.000  0.139  0.000  0.046  0.000  0.000  0.000  0.000  0.000  0.186
    2  0.000  0.139  0.000  0.046  0.000  0.000  0.000  0.000  0.000  0.186
    3  0.000  0.139  0.000  0.046  0.000  0.000  0.000  0.000  0.000  0.186
    4  0.000  0.139  0.000  0.046  0.000  0.000  0.000  0.000  0.000  0.186
tot    0.000  0.557  0.000  0.186  0.000  0.000  0.000  0.000  0.000  0.743
 
band     6 # energy   10.05761375 # occ.  1.00000000
 
ion      s     py     pz     px    dxy    dyz    dz2    dxz  x2-y2    tot
    1  0.016  0.043  0.010  0.129  0.000  0.000  0.000  0.000  0.000  0.197
    2  0.016  0.043  0.010  0.129  0.000  0.000  0.000  0.000  0.000  0.197
    3  0.016  0.043  0.010  0.129  0.000  0.000  0.000  0.000  0.000  0.197
    4  0.016  0.043  0.010  0.129  0.000  0.000  0.000  0.000  0.000  0.197
tot    0.064  0.172  0.040  0.515  0.000  0.000  0.000  0.000  0.000  0.790
 
band     7 # energy   10.59967536 # occ.  1.00000000
 
ion      s     py     pz     px    dxy    dyz    dz2    dxz  x2-y2    tot
    1  0.001  0.003  0.179  0.010  0.000  0.000  0.000  0.000  0.000  0.193
    2  0.001  0.003  0.179  0.010  0.000  0.000  0.000  0.000  0.000  0.193
    3  0.001  0.003  0.179  0.010  0.000  0.000  0.000  0.000  0.000  0.193
    4  0.001  0.003  0.179  0.010  0.000  0.000  0.000  0.000  0.000  0.193
tot    0.004  0.013  0.716  0.039  0.000  0.000  0.000  0.000  0.000  0.772
 
band     8 # energy   11.17425004 # occ.  1.00000000
 
ion      s     py     pz     px    dxy    dyz    dz2    dxz  x2-y2    tot
    1  0.000  0.151  0.000  0.050  0.000  0.000  0.000  0.000  0.000  0.201
    2  0.000  0.151  0.000  0.050  0.000  0.000  0.000  0.000  0.000  0.201
    3  0.000  0.151  0.000  0.050  0.000  0.000  0.000  0.000  0.000  0.201
    4  0.000  0.151  0.000  0.050  0.000  0.000  0.000  0.000  0.000  0.201
tot    0.000  0.603  0.000  0.201  0.000  0.000  0.000  0.000  0.000  0.803
 
band     9 # energy   17.47558367 # occ.  0.00000000
 
ion      s     py     pz     px    dxy    dyz    dz2    dxz  x2-y2    tot
    1  0.021  0.025  0.015  0.075  0.000  0.000  0.000  0.000  0.000  0.135
    2  0.021  0.025  0.015  0.075  0.000  0.000  0.000  0.000  0.000  0.135
    3  0.021  0.025  0.015  0.075  0.000  0.000  0.000  0.000  0.000  0.135
    4  0.021  0.025  0.015  0.075  0.000  0.000  0.000  0.000  0.000  0.135
tot    0.083  0.099  0.060  0.298  0.000  0.000  0.000  0.000  0.000  0.542
 
band    10 # energy   18.58133889 # occ.  0.00000000
 
ion      s     py     pz     px    dxy    dyz    dz2    dxz  x2-y2    tot
    1  0.000  0.114  0.000  0.038  0.000  0.000  0.000  0.000  0.000  0.152
    2  0.000  0.114  0.000  0.038  0.000  0.000  0.000  0.000  0.000  0.152
    3  0.000  0.114  0.000  0.038  0.000  0.000  0.000  0.000  0.000  0.152
    4  0.000  0.114  0.000  0.038  0.000  0.000  0.000  0.000  0.000  0.152
tot    0.000  0.455  0.000  0.152  0.000  0.000  0.000  0.000  0.000  0.607
 
band    11 # energy   18.64524652 # occ.  0.00000000
 
ion      s     py     pz     px    dxy    dyz    dz2    dxz  x2-y2    tot
    1  0.006  0.002  0.140  0.007  0.000  0.000  0.000  0.000  0.000  0.155
    2  0.006  0.002  0.140  0.007  0.000  0.000  0.000  0.000  0.000  0.155
    3  0.006  0.002  0.140  0.007  0.000  0.000  0.000  0.000  0.000  0.155
    4  0.006  0.002  0.140  0.007  0.000  0.000  0.000  0.000  0.000  0.155
tot    0.026  0.009  0.559  0.026  0.000  0.000  0.000  0.000  0.000  0.620
 
band    12 # energy   22.93147084 # occ.  0.00000000
 
ion      s     py     pz     px    dxy    dyz    dz2    dxz  x2-y2    tot
    1  0.018  0.033  0.004  0.099  0.000  0.000  0.000  0.000  0.000  0.153
    2  0.018  0.033  0.004  0.099  0.000  0.000  0.000  0.000  0.000  0.153
    3  0.018  0.033  0.004  0.099  0.000  0.000  0.000  0.000  0.000  0.153
    4  0.018  0.033  0.004  0.099  0.000  0.000  0.000  0.000  0.000  0.153
tot    0.070  0.132  0.016  0.395  0.000  0.000  0.000  0.000  0.000  0.613
 
band    13 # energy   23.21615754 # occ.  0.00000000
 
ion      s     py     pz     px    dxy    dyz    dz2    dxz  x2-y2    tot
    1  0.104  0.010  0.011  0.030  0.000  0.000  0.000  0.000  0.000  0.154
    2  0.104  0.010  0.011  0.030  0.000  0.000  0.000  0.000  0.000  0.154
    3  0.104  0.010  0.011  0.030  0.000  0.000  0.000  0.000  0.000  0.154
    4  0.104  0.010  0.011  0.030  0.000  0.000  0.000  0.000  0.000  0.154
tot    0.415  0.040  0.044  0.119  0.000  0.000  0.000  0.000  0.000  0.617
 
band    14 # energy   24.14486461 # occ.  0.00000000
 
ion      s     py     pz     px    dxy    dyz    dz2    dxz  x2-y2    tot
    1  0.000  0.126  0.000  0.042  0.000  0.000  0.000  0.000  0.000  0.168
    2  0.000  0.126  0.000  0.042  0.000  0.000  0.000  0.000  0.000  0.168
    3  0.000  0.126  0.000  0.042  0.000  0.000  0.000  0.000  0.000  0.168
    4  0.000  0.126  0.000  0.042  0.000  0.000  0.000  0.000  0.000  0.168
tot    0.000  0.504  0.000  0.168  0.000  0.000  0.000  0.000  0.000  0.672
 
band    15 # energy   28.30655342 # occ.  0.00000000
 
ion      s     py     pz     px    dxy    dyz    dz2    dxz  x2-y2    tot
    1  0.003  0.002  0.009  0.007  0.000  0.000  0.000  0.000  0.000  0.021
    2  0.003  0.002  0.009  0.007  0.000  0.000  0.000  0.000  0.000  0.021
    3  0.003  0.002  0.009  0.007  0.000  0.000  0.000  0.000  0.000  0.021
    4  0.003  0.002  0.009  0.007  0.000  0.000  0.000  0.000  0.000  0.021
tot    0.012  0.010  0.035  0.029  0.000  0.000  0.000  0.000  0.000  0.086
 
band    16 # energy   30.01645465 # occ.  0.00000000
 
ion      s     py     pz     px    dxy    dyz    dz2    dxz  x2-y2    tot
    1  0.179  0.008  0.006  0.024  0.000  0.000  0.000  0.000  0.000  0.217
    2  0.179  0.008  0.006  0.024  0.000  0.000  0.000  0.000  0.000  0.217
    3  0.179  0.008  0.006  0.024  0.000  0.000  0.000  0.000  0.000  0.217
    4  0.179  0.008  0.006  0.024  0.000  0.000  0.000  0.000  0.000  0.217
tot    0.715  0.031  0.025  0.094  0.000  0.000  0.000  0.000  0.000  0.866
 

 k-point     4 :    0.21428571 0.00000000 0.00000000     weight = 0.00510204

band     1 # energy  -10.35319294 # occ.  1.00000000
 
ion      s     py     pz     px    dxy    dyz    dz2    dxz  x2-y2    tot
    1  0.142  0.002  0.000  0.007  0.000  0.000  0.000  0.000  0.000  0.151
    2  0.142  0.002  0.000  0.007  0.000  0.000  0.000  0.000  0.000  0.151
    3  0.142  0.002  0.000  0.007  0.000  0.000  0.000  0.000  0.000  0.151
    4  0.142  0.002  0.000  0.007  0.000  0.000  0.000  0.000  0.000  0.151
tot    0.570  0.009  0.000  0.027  0.000  0.000  0.000  0.000  0.000  0.606
 
band     2 # energy   -4.16857807 # occ.  1.00000000
 
ion      s     py     pz     px    dxy    dyz    dz2    dxz  x2-y2    tot
    1  0.146  0.003  0.018  0.010  0.000  0.000  0.000  0.000  0.000  0.176
    2  0.146  0.003  0.018  0.010  0.000  0.000  0.000  0.000  0.000  0.176
    3  0.146  0.003  0.018  0.010  0.000  0.000  0.000  0.000  0.000  0.176
    4  0.146  0.003  0.018  0.010  0.000  0.000  0.000  0.000  0.000  0.176
tot    0.583  0.013  0.071  0.039  0.000  0.000  0.000  0.000  0.000  0.705
 
band     3 # energy   -2.06711632 # occ.  1.00000000
 
ion      s     py     pz     px    dxy    dyz    dz2    dxz  x2-y2    tot
    1  0.041  0.000  0.103  0.001  0.000  0.000  0.000  0.000  0.000  0.145
    2  0.041  0.000  0.103  0.001  0.000  0.000  0.000  0.000  0.000  0.145
    3  0.041  0.000  0.103  0.001  0.000  0.000  0.000  0.000  0.000  0.145
    4  0.041  0.000  0.103  0.001  0.000  0.000  0.000  0.000  0.000  0.145
tot    0.164  0.001  0.412  0.002  0.000  0.000  0.000  0.000  0.000  0.578
 
band     4 # energy    4.01031422 # occ.  1.00000000
 
ion      s     py     pz     px    dxy    dyz    dz2    dxz  x2-y2    tot
    1  0.037  0.033  0.002  0.099  0.000  0.000  0.000  0.000  0.000  0.172
    2  0.037  0.033  0.002  0.099  0.000  0.000  0.000  0.000  0.000  0.172
    3  0.037  0.033  0.002  0.099  0.000  0.000  0.000  0.000  0.000  0.172
    4  0.037  0.033  0.002  0.099  0.000  0.000  0.000  0.000  0.000  0.172
tot    0.148  0.133  0.008  0.398  0.000  0.000  0.000  0.000  0.000  0.686
 
band     5 # energy    6.68118930 # occ.  1.00000000
 
ion      s     py     pz     px    dxy    dyz    dz2    dxz  x2-y2    tot
    1  0.000  0.137  0.000  0.046  0.000  0.000  0.000  0.000  0.000  0.182
    2  0.000  0.137  0.000  0.046  0.000  0.000  0.000  0.000  0.000  0.182
    3  0.000  0.137  0.000  0.046  0.000  0.000  0.000  0.000  0.000  0.182
    4  0.000  0.137  0.000  0.046  0.000  0.000  0.000  0.000  0.000  0.182
tot    0.000  0.546  0.000  0.182  0.000  0.000  0.000  0.000  0.000  0.728
 
band     6 # energy    8.20254220 # occ.  1.00000000
 
ion      s     py     pz     px    dxy    dyz    dz2    dxz  x2-y2    tot
    1  0.030  0.037  0.013  0.112  0.000  0.000  0.000  0.000  0.000  0.193
    2  0.030  0.037  0.013  0.112  0.000  0.000  0.000  0.000  0.000  0.193
    3  0.030  0.037  0.013  0.112  0.000  0.000  0.000  0.000  0.000  0.193
    4  0.030  0.037  0.013  0.112  0.000  0.000  0.000  0.000  0.000  0.193
tot    0.122  0.150  0.051  0.449  0.000  0.000  0.000  0.000  0.000  0.772
 
band     7 # energy    9.67887460 # occ.  1.00000000
 
ion      s     py     pz     px    dxy    dyz    dz2    dxz  x2-y2    tot
    1  0.003  0.005  0.165  0.015  0.000  0.000  0.000  0.000  0.000  0.188
    2  0.003  0.005  0.165  0.015  0.000  0.000  0.000  0.000  0.000  0.188
    3  0.003  0.005  0.165  0.015  0.000  0.000  0.000  0.000  0.000  0.188
    4  0.003  0.005  0.165  0.015  0.000  0.000  0.000  0.000  0.000  0.188
tot    0.013  0.020  0.660  0.060  0.000  0.000  0.000  0.000  0.000  0.752
 
band     8 # energy   10.37201668 # occ.  1.00000000
 
ion      s     py     pz     px    dxy    dyz    dz2    dxz  x2-y2    tot
    1  0.000  0.149  0.000  0.050  0.000  0.000  0.000  0.000  0.000  0.198
    2  0.000  0.149  0.000  0.050  0.000  0.000  0.000  0.000  0.000  0.198
    3  0.000  0.149  0.000  0.050  0.000  0.000  0.000  0.000  0.000  0.198
    4  0.000  0.149  0.000  0.050  0.000  0.000  0.000  0.000  0.000  0.198
tot    0.000  0.594  0.000  0.198  0.000  0.000  0.000  0.000  0.000  0.792
 
band     9 # energy   17.42803738 # occ.  0.00000000
 
ion      s     py     pz     px    dxy    dyz    dz2    dxz  x2-y2    tot
    1  0.038  0.016  0.023  0.048  0.000  0.000  0.000  0.000  0.000  0.125
    2  0.038  0.016  0.023  0.048  0.000  0.000  0.000  0.000  0.000  0.125
    3  0.038  0.016  0.023  0.048  0.000  0.000  0.000  0.000  0.000  0.125
    4  0.038  0.016  0.023  0.048  0.000  0.000  0.000  0.000  0.000  0.125
tot    0.153  0.064  0.090  0.193  0.000  0.000  0.000  0.000  0.000  0.501
 
band    10 # energy   19.28336032 # occ.  0.00000000
 
ion      s     py     pz     px    dxy    dyz    dz2    dxz  x2-y2    tot
    1  0.007  0.003  0.134  0.009  0.000  0.000  0.000  0.000  0.000  0.153
    2  0.007  0.003  0.134  0.009  0.000  0.000  0.000  0.000  0.000  0.153
    3  0.007  0.003  0.134  0.009  0.000  0.000  0.000  0.000  0.000  0.153
    4  0.007  0.003  0.134  0.009  0.000  0.000  0.000  0.000  0.000  0.153