unknown system                          
            1
     2.513094    0.000000    0.000000
    -1.256547    2.176403    0.000000
     0.000000    0.000000    4.181402
   C 
   4
Direct configuration=     1
   0.33333300  0.66666700  0.93722800
   0.66666700  0.33333300  0.43722800
   0.66666700  0.33333300  0.06277200
   0.33333300  0.66666700  0.56277200
unknown system                          
            1
     2.502805    0.000000    0.000000
    -1.251403    2.167493   -0.000000
     0.000000    0.000000    4.164335
   C 
   4
Direct configuration=     2
   0.33333300  0.66666700  0.93722985
   0.66666700  0.33333300  0.43722985
   0.66666700  0.33333300  0.06277015
   0.33333300  0.66666700  0.56277015
unknown system                          
            1
     2.471939    0.000000    0.000000
    -1.235969    2.140762   -0.000000
     0.000000    0.000000    4.113134
   C 
   4
Direct configuration=     3
   0.33333300  0.66666700  0.93723544
   0.66666700  0.33333300  0.43723544
   0.66666700  0.33333300  0.06276456
   0.33333300  0.66666700  0.56276456
unknown system                          
            1
     2.410206    0.000000    0.000000
    -1.205103    2.087299   -0.000000
     0.000000    0.000000    4.010733
   C 
   4
Direct configuration=     4
   0.33333300  0.66666700  0.93724675
   0.66666700  0.33333300  0.43724675
   0.66666700  0.33333300  0.06275325
   0.33333300  0.66666700  0.56275325
unknown system                          
            1
     2.400686    0.000000    0.000000
    -1.200343    2.079055   -0.000000
     0.000000    0.000000    3.994942
   C 
   4
Direct configuration=     5
   0.33333300  0.66666700  0.93724854
   0.66666700  0.33333300  0.43724854
   0.66666700  0.33333300  0.06275146
   0.33333300  0.66666700  0.56275146
unknown system                          
            1
     2.400471   -0.000000    0.000000
    -1.200235    2.078868   -0.000000
    -0.000000    0.000000    3.995444
   C 
   4
Direct configuration=     6
   0.33333300  0.66666700  0.93705441
   0.66666700  0.33333300  0.43705441
   0.66666700  0.33333300  0.06294559
   0.33333300  0.66666700  0.56294559
unknown system                          
            1
     2.400110   -0.000000    0.000000
    -1.200055    2.078556   -0.000000
    -0.000000    0.000000    3.996283
   C 
   4
Direct configuration=     7
   0.33333300  0.66666700  0.93673003
   0.66666700  0.33333300  0.43673003
   0.66666700  0.33333300  0.06326997
   0.33333300  0.66666700  0.56326997
unknown system                          
            1
     2.400075   -0.000000    0.000000
    -1.200038    2.078526   -0.000000
    -0.000000    0.000000    3.997441
   C 
   4
Direct configuration=     8
   0.33333300  0.66666700  0.93673025
   0.66666700  0.33333300  0.43673025
   0.66666700  0.33333300  0.06326975
   0.33333300  0.66666700  0.56326975
unknown system                          
            1
     2.400013   -0.000000    0.000000
    -1.200006    2.078472   -0.000000
    -0.000000    0.000000    3.999498
   C 
   4
Direct configuration=     9
   0.33333300  0.66666700  0.93673064
   0.66666700  0.33333300  0.43673064
   0.66666700  0.33333300  0.06326936
   0.33333300  0.66666700  0.56326936
