    4    4  100    2
  0.5717550E+01  0.2513094E-09  0.2513094E-09  0.4181402E-09  0.1500000E-16
   1.0000000000000000E-004
  CAR 
 unknown system                          
     16     96     16
 
  0.3742002E-15  0.3742002E-15  0.3742002E-15  0.8503401E-03
    1      -11.743113    -11.743161   1.000000   1.000000
    2       -6.162459     -6.162512   1.000000   1.000000
    3       -3.640153     -3.640173   1.000000   1.000000
    4        6.977697      6.977707   1.000000   1.000000
    5        6.977788      6.977790   1.000000   1.000000
    6        9.593905      9.593918   1.000000   1.000000
    7       10.081004     10.081016   1.000000   1.000000
    8       10.081103     10.081112   1.000000   1.000000
    9       15.048564     15.048572   0.000000   0.000000
   10       15.048648     15.048669   0.000000   0.000000
   11       15.437180     15.437194   0.000000   0.000000
   12       18.192216     18.192141   0.000000   0.000000
   13       19.605409     19.605434   0.000000   0.000000
   14       19.605522     19.605548   0.000000   0.000000
   15       24.152090     24.151968   0.000000   0.000000
   16       27.816810     27.816855   0.000000   0.000000
 
  0.7142857E-01  0.3742194E-15  0.3742002E-15  0.5102041E-02
    1      -11.616183    -11.616232   1.000000   1.000000
    2       -6.048016     -6.048068   1.000000   1.000000
    3       -3.521809     -3.521830   1.000000   1.000000
    4        6.332048      6.332051   1.000000   1.000000
    5        6.711418      6.711422   1.000000   1.000000
    6        9.400348      9.400361   1.000000   1.000000
    7        9.529940      9.529948   1.000000   1.000000
    8        9.843663      9.843672   1.000000   1.000000
    9       15.133337     15.133352   0.000000   0.000000
   10       15.394195     15.394207   0.000000   0.000000
   11       15.662806     15.662819   0.000000   0.000000
   12       18.598352     18.598285   0.000000   0.000000
   13       19.732296     19.732319   0.000000   0.000000
   14       20.021010     20.021036   0.000000   0.000000
   15       24.310524     24.310408   0.000000   0.000000
   16       27.656962     27.657005   0.000000   0.000000
 
  0.1428571E+00  0.3778240E-15  0.3742002E-15  0.5102041E-02
    1      -11.236446    -11.236494   1.000000   1.000000
    2       -5.705592     -5.705644   1.000000   1.000000
    3       -3.172871     -3.172892   1.000000   1.000000
    4        4.742764      4.742757   1.000000   1.000000
    5        6.063389      6.063392   1.000000   1.000000
    6        8.167720      8.167721   1.000000   1.000000
    7        8.864589      8.864600   1.000000   1.000000
    8        9.253331      9.253340   1.000000   1.000000
    9       15.176955     15.176960   0.000000   0.000000
   10       16.162962     16.162973   0.000000   0.000000
   11       16.223397     16.223411   0.000000   0.000000
   12       19.613082     19.613036   0.000000   0.000000
   13       19.963479     19.963489   0.000000   0.000000
   14       21.100440     21.100470   0.000000   0.000000
   15       24.779138     24.779047   0.000000   0.000000
   16       25.846406     25.846396   0.000000   0.000000
 
  0.2142857E+00  0.3806259E-15  0.3742002E-15  0.5102041E-02
    1      -10.607479    -10.607527   1.000000   1.000000
    2       -5.137745     -5.137795   1.000000   1.000000
    3       -2.617653     -2.617675   1.000000   1.000000
    4        2.755350      2.755336   1.000000   1.000000
    5        5.299868      5.299870   1.000000   1.000000
    6        6.445404      6.445396   1.000000   1.000000
    7        8.038332      8.038340   1.000000   1.000000
    8        8.545708      8.545715   1.000000   1.000000
    9       15.080221     15.080214   0.000000   0.000000
   10       16.739904     16.739915   0.000000   0.000000
   11       17.138261     17.138276   0.000000   0.000000
   12       20.179134     20.179120   0.000000   0.000000
   13       20.365012     20.364993   0.000000   0.000000
   14       22.557222     22.557256   0.000000   0.000000
   15       24.698709     24.698690   0.000000   0.000000
   16       25.475243     25.475196   0.000000   0.000000
 
  0.2857143E+00  0.3671018E-15  0.3742002E-15  0.5102041E-02
    1       -9.737074     -9.737121   1.000000   1.000000
    2       -4.350386     -4.350435   1.000000   1.000000
    3       -1.953195     -1.953221   1.000000   1.000000
    4        0.753530      0.753516   1.000000   1.000000
    5        4.596122      4.596123   1.000000   1.000000
    6        4.604375      4.604358   1.000000   1.000000
    7        6.974717      6.974721   1.000000   1.000000
    8        7.880719      7.880726   1.000000   1.000000
    9       14.912517     14.912501   0.000000   0.000000
   10       17.333642     17.333655   0.000000   0.000000
   11       17.820405     17.820420   0.000000   0.000000
   12       19.863893     19.863890   0.000000   0.000000
   13       20.343926     20.343886   0.000000   0.000000
   14       24.093270     24.093309   0.000000   0.000000
   15       25.242927     25.242940   0.000000   0.000000
   16       25.419524     25.419509   0.000000   0.000000
 
  0.3571429E+00  0.3813174E-15  0.3742002E-15  0.5102041E-02
    1       -8.643150     -8.643197   1.000000   1.000000
    2       -3.356080     -3.356127   1.000000   1.000000
    3       -2.043993     -2.044031   1.000000   1.000000
    4       -0.282282     -0.282287   1.000000   1.000000
    5        2.788394      2.788371   1.000000   1.000000
    6        4.050705      4.050704   1.000000   1.000000
    7        5.780139      5.780139   1.000000   1.000000
    8        7.361493      7.361500   1.000000   1.000000
    9       14.736898     14.736876   0.000000   0.000000
   10       17.895483     17.895498   0.000000   0.000000
   11       18.191358     18.191372   0.000000   0.000000
   12       18.974645     18.974646   0.000000   0.000000
   13       20.532365     20.532307   0.000000   0.000000
   14       24.267369     24.267379   0.000000   0.000000
   15       25.439567     25.439613   0.000000   0.000000
   16       27.009365     27.009363   0.000000   0.000000
 
  0.4285714E+00  0.3841193E-15  0.3742002E-15  0.5102041E-02
    1       -7.387111     -7.387158   1.000000   1.000000
    2       -3.600584     -3.600621   1.000000   1.000000
    3       -2.195917     -2.195963   1.000000   1.000000
    4        0.348447      0.348438   1.000000   1.000000
    5        1.112285      1.112258   1.000000   1.000000
    6        3.707952      3.707951   1.000000   1.000000
    7        4.658259      4.658256   1.000000   1.000000
    8        7.034779      7.034785   1.000000   1.000000
    9       14.602057     14.602031   0.000000   0.000000
   10       18.319178     18.319191   0.000000   0.000000
   11       18.339692     18.339704   0.000000   0.000000
   12       18.371654     18.371659   0.000000   0.000000
   13       20.820319     20.820258   0.000000   0.000000
   14       23.350854     23.350857   0.000000   0.000000
   15       26.356317     26.356368   0.000000   0.000000
   16       28.719433     28.272884   0.000000   0.000000
 
  0.5000000E+00  0.3542694E-15  0.3742002E-15  0.2551020E-02
    1       -6.487094     -6.487144   1.000000   1.000000
    2       -4.668374     -4.668406   1.000000   1.000000
    3       -1.299468     -1.299518   1.000000   1.000000
    4        0.039056      0.039032   1.000000   1.000000
    5        0.789977      0.789967   1.000000   1.000000
    6        3.590836      3.590835   1.000000   1.000000
    7        4.108438      4.108435   1.000000   1.000000
    8        6.921484      6.921490   1.000000   1.000000
    9       14.549190     14.549162   0.000000   0.000000
   10       18.167577     18.167582   0.000000   0.000000
   11       18.372618     18.372629   0.000000   0.000000
   12       18.470625     18.470635   0.000000   0.000000
   13       21.026994     21.026934   0.000000   0.000000
   14       22.904101     22.904100   0.000000   0.000000
   15       26.651468     26.651521   0.000000   0.000000
   16       29.033073     29.033133   0.000000   0.000000
 
  0.7142857E-01  0.7142857E-01  0.3742002E-15  0.5102041E-02
    1      -11.362844    -11.362892   1.000000   1.000000
    2       -5.819574     -5.819626   1.000000   1.000000
    3       -3.288053     -3.288074   1.000000   1.000000
    4        5.309431      5.309428   1.000000   1.000000
    5        6.148712      6.148714   1.000000   1.000000
    6        8.640212      8.640216   1.000000   1.000000
    7        9.051988      9.052000   1.000000   1.000000
    8        9.367448      9.367456   1.000000   1.000000
    9       15.423425     15.423439   0.000000   0.000000
   10       15.749616     15.749624   0.000000   0.000000
   11       16.029960     16.029971   0.000000   0.000000
   12       19.305190     19.305139   0.000000   0.000000
   13       19.988175     19.988196   0.000000   0.000000
   14       20.678100     20.678121   0.000000   0.000000
   15       24.634863     24.634765   0.000000   0.000000
   16       26.760710     26.760714   0.000000   0.000000
 
  0.1428571E+00  0.7142857E-01  0.3742002E-15  0.1020408E-01
    1      -10.858418    -10.858466   1.000000   1.000000
    2       -5.364450     -5.364501   1.000000   1.000000
    3       -2.834467     -2.834488   1.000000   1.000000
    4        3.658639      3.658628   1.000000   1.000000
    5        5.276775      5.276776   1.000000   1.000000
    6        7.211837      7.211833   1.000000   1.000000
    7        8.405596      8.405606   1.000000   1.000000
    8        8.604190      8.604197   1.000000   1.000000
    9       15.565132     15.565133   0.000000   0.000000
   10       16.489690     16.489701   0.000000   0.000000
   11       16.594449     16.594459   0.000000   0.000000
   12       20.153838     20.153808   0.000000   0.000000
   13       20.353540     20.353547   0.000000   0.000000
   14       21.746153     21.746169   0.000000   0.000000
   15       25.270939     25.270877   0.000000   0.000000
   16       25.316000     25.315992   0.000000   0.000000
 
  0.2142857E+00  0.7142857E-01  0.3742002E-15  0.1020408E-01
    1      -10.108348    -10.108395   1.000000   1.000000
    2       -4.686722     -4.686772   1.000000   1.000000
    3       -2.208272     -2.208295   1.000000   1.000000
    4        1.725896      1.725880   1.000000   1.000000
    5        4.443446      4.443445   1.000000   1.000000
    6        5.502914      5.502902   1.000000   1.000000
    7        7.494492      7.494498   1.000000   1.000000
    8        7.844861      7.844866   1.000000   1.000000
    9       15.468349     15.468341   0.000000   0.000000
   10       17.231876     17.231887   0.000000   0.000000
   11       17.280086     17.280099   0.000000   0.000000
   12       20.251501     20.251488   0.000000   0.000000
   13       20.598870     20.598849   0.000000   0.000000
   14       23.131967     23.131988   0.000000   0.000000
   15       24.932990     24.932982   0.000000   0.000000
   16       25.665326     25.665334   0.000000   0.000000
 
  0.2857143E+00  0.7142857E-01  0.3742002E-15  0.1020408E-01
    1       -9.124302     -9.124348   1.000000   1.000000
    2       -3.794964     -3.795012   1.000000   1.000000
    3       -1.702189     -1.702222   1.000000   1.000000
    4        0.027470      0.027460   1.000000   1.000000
    5        3.711680      3.711660   1.000000   1.000000
    6        3.772476      3.772473   1.000000   1.000000
    7        6.378061      6.378063   1.000000   1.000000
    8        7.215526      7.215530   1.000000   1.000000
    9       15.341164     15.341150   0.000000   0.000000
   10       17.476481     17.476490   0.000000   0.000000
   11       17.886530     17.886544   0.000000   0.000000
   12       19.893066     19.893064   0.000000   0.000000
   13       20.744313     20.744268   0.000000   0.000000
   14       24.485878     24.485897   0.000000   0.000000
   15       24.902365     24.902395   0.000000   0.000000
   16       25.926227     25.926229   0.000000   0.000000
 
  0.3571429E+00  0.7142857E-01  0.3742002E-15  0.1020408E-01
    1       -7.937055     -7.937101   1.000000   1.000000
    2       -2.732609     -2.732647   1.000000   1.000000
    3       -2.710487     -2.710532   1.000000   1.000000
    4        0.056506      0.056499   1.000000   1.000000
    5        1.976777      1.976751   1.000000   1.000000
    6        3.318225      3.318221   1.000000   1.000000
    7        5.194972      5.194971   1.000000   1.000000
    8        6.773979      6.773983   1.000000   1.000000
    9       15.259846     15.259827   0.000000   0.000000
   10       17.082719     17.082724   0.000000   0.000000
   11       18.487365     18.487382   0.000000   0.000000
   12       19.832623     19.832629   0.000000   0.000000
   13       20.912688     20.912629   0.000000   0.000000
   14       23.751999     23.752006   0.000000   0.000000
   15       25.882457     25.882501   0.000000   0.000000
   16       27.477981     27.477994   0.000000   0.000000
 
  0.4285714E+00  0.7142857E-01  0.3742002E-15  0.1020408E-01
    1       -6.702856     -6.702905   1.000000   1.000000
    2       -4.256706     -4.256742   1.000000   1.000000
    3       -1.542182     -1.542228   1.000000   1.000000
    4        0.469095      0.469069   1.000000   1.000000
    5        0.725791      0.725781   1.000000   1.000000
    6        3.122177      3.122174   1.000000   1.000000
    7        4.248337      4.248335   1.000000   1.000000
    8        6.544667      6.544671   1.000000   1.000000
    9       15.236660     15.236636   0.000000   0.000000
   10       16.718631     16.718636   0.000000   0.000000
   11       18.865495     18.865512   0.000000   0.000000
   12       19.874000     19.874010   0.000000   0.000000
   13       21.146356     21.146294   0.000000   0.000000
   14       23.006397     23.006397   0.000000   0.000000
   15       26.560795     26.560845   0.000000   0.000000
   16       28.495170     28.495163   0.000000   0.000000
 
  0.1428571E+00  0.1428571E+00  0.3742002E-15  0.5102041E-02
    1      -10.232656    -10.232703   1.000000   1.000000
    2       -4.799227     -4.799276   1.000000   1.000000
    3       -2.302817     -2.302839   1.000000   1.000000
    4        2.330918      2.330901   1.000000   1.000000
    5        4.044162      4.044160   1.000000   1.000000
    6        6.005706      6.005695   1.000000   1.000000
    7        7.591317      7.591321   1.000000   1.000000
    8        7.710769      7.710777   1.000000   1.000000
    9       16.333980     16.333985   0.000000   0.000000
   10       16.597117     16.597122   0.000000   0.000000
   11       17.252325     17.252334   0.000000   0.000000
   12       20.242870     20.242849   0.000000   0.000000
   13       21.131536     21.131546   0.000000   0.000000
   14       22.321898     22.321886   0.000000   0.000000
   15       24.995295     24.995294   0.000000   0.000000
   16       26.033973     26.033952   0.000000   0.000000
 
  0.2142857E+00  0.1428571E+00  0.3742002E-15  0.1020408E-01
    1       -9.367484     -9.367531   1.000000   1.000000
    2       -4.016468     -4.016516   1.000000   1.000000
    3       -1.705076     -1.705104   1.000000   1.000000
    4        0.807670      0.807655   1.000000   1.000000
    5        2.992525      2.992521   1.000000   1.000000
    6        4.539154      4.539136   1.000000   1.000000
    7        6.665093      6.665095   1.000000   1.000000
    8        6.773789      6.773793   1.000000   1.000000
    9       16.061118     16.061122   0.000000   0.000000
   10       17.365552     17.365553   0.000000   0.000000
   11       18.014651     18.014659   0.000000   0.000000
   12       20.140980     20.140964   0.000000   0.000000
   13       21.630043     21.630030   0.000000   0.000000
   14       23.351686     23.351681   0.000000   0.000000
   15       24.899010     24.899009   0.000000   0.000000
   16       25.210451     25.210475   0.000000   0.000000
 
  0.2857143E+00  0.1428571E+00  0.3742002E-15  0.1020408E-01
    1       -8.281540     -8.281587   1.000000   1.000000
    2       -3.029941     -3.029988   1.000000   1.000000
    3       -1.917252     -1.917293   1.000000   1.000000
    4        0.061315      0.061310   1.000000   1.000000
    5        2.315289      2.315283   1.000000   1.000000
    6        2.919084      2.919060   1.000000   1.000000
    7        5.671518      5.671519   1.000000   1.000000
    8        6.010931      6.010931   1.000000   1.000000
    9       15.670641     15.670644   0.000000   0.000000
   10       17.373791     17.373781   0.000000   0.000000
   11       18.809007     18.809019   0.000000   0.000000
   12       20.583158     20.583157   0.000000   0.000000
   13       21.758153     21.758116   0.000000   0.000000
   14       24.067803     24.067808   0.000000   0.000000
   15       24.976492     24.976520   0.000000   0.000000
   16       25.708258     25.708263   0.000000   0.000000
 
  0.3571429E+00  0.1428571E+00  0.3742002E-15  0.1020408E-01
    1       -7.035523     -7.035570   1.000000   1.000000
    2       -3.383333     -3.383372   1.000000   1.000000
    3       -1.882136     -1.882181   1.000000   1.000000
    4        0.594625      0.594616   1.000000   1.000000
    5        1.337268      1.337240   1.000000   1.000000
    6        2.035159      2.035154   1.000000   1.000000
    7        4.577058      4.577056   1.000000   1.000000
    8        5.627792      5.627791   1.000000   1.000000
    9       15.351383     15.351387   0.000000   0.000000
   10       17.097416     17.097400   0.000000   0.000000
   11       19.541061     19.541079   0.000000   0.000000
   12       21.109496     21.109504   0.000000   0.000000
   13       21.815468     21.815416   0.000000   0.000000
   14       23.236431     23.236433   0.000000   0.000000
   15       26.127505     26.127545   0.000000   0.000000
   16       27.175974     27.175990   0.000000   0.000000
 
  0.4285714E+00  0.1428571E+00  0.3742002E-15  0.5102041E-02
    1       -6.135693     -6.135743   1.000000   1.000000
    2       -4.422285     -4.422320   1.000000   1.000000
    3       -0.996403     -0.996451   1.000000   1.000000
    4        0.297777      0.297751   1.000000   1.000000
    5        0.888508      0.888494   1.000000   1.000000
    6        2.100310      2.100309   1.000000   1.000000
    7        3.988094      3.988091   1.000000   1.000000
    8        5.499503      5.499501   1.000000   1.000000
    9       15.225552     15.225554   0.000000   0.000000
   10       16.977967     16.977951   0.000000   0.000000
   11       19.878332     19.878356   0.000000   0.000000
   12       21.301858     21.301870   0.000000   0.000000
   13       21.865327     21.865270   0.000000   0.000000
   14       22.783053     22.783052   0.000000   0.000000
   15       26.566139     26.566185   0.000000   0.000000
   16       28.358745     28.358799   0.000000   0.000000
 
  0.2142857E+00  0.2142857E+00  0.3742002E-15  0.5102041E-02
    1       -8.398196     -8.398242   1.000000   1.000000
    2       -3.137747     -3.137794   1.000000   1.000000
    3       -1.589432     -1.589474   1.000000   1.000000
    4        0.349629      0.349624   1.000000   1.000000
    5        1.588930      1.588923   1.000000   1.000000
    6        3.481490      3.481465   1.000000   1.000000
    7        5.476215      5.476214   1.000000   1.000000
    8        5.865668      5.865670   1.000000   1.000000
    9       15.406935     15.406940   0.000000   0.000000
   10       18.592096     18.592097   0.000000   0.000000
   11       18.906381     18.906387   0.000000   0.000000
   12       20.297592     20.297576   0.000000   0.000000
   13       22.963494     22.963495   0.000000   0.000000
   14       23.556207     23.556180   0.000000   0.000000
   15       24.473087     24.473110   0.000000   0.000000
   16       24.900727     24.900728   0.000000   0.000000
 
  0.2857143E+00  0.2142857E+00  0.3742002E-15  0.1020408E-01
    1       -7.232506     -7.232552   1.000000   1.000000
    2       -2.552365     -2.552409   1.000000   1.000000
    3       -2.075027     -2.075072   1.000000   1.000000
    4        0.492770      0.492761   1.000000   1.000000
    5        1.029658      1.029655   1.000000   1.000000
    6        2.205592      2.205562   1.000000   1.000000
    7        4.670834      4.670831   1.000000   1.000000
    8        4.844140      4.844140   1.000000   1.000000
    9       14.628763     14.628765   0.000000   0.000000
   10       19.229312     19.229306   0.000000   0.000000
   11       19.801507     19.801513   0.000000   0.000000
   12       21.213992     21.213991   0.000000   0.000000
   13       23.212882     23.212859   0.000000   0.000000
   14       23.522974     23.522978   0.000000   0.000000
   15       25.042723     25.042741   0.000000   0.000000
   16       25.529105     25.529112   0.000000   0.000000
 
  0.3571429E+00  0.2142857E+00  0.3742002E-15  0.1020408E-01
    1       -6.012317     -6.012364   1.000000   1.000000
    2       -3.875626     -3.875667   1.000000   1.000000
    3       -0.934387     -0.934431   1.000000   1.000000
    4        0.163270      0.163258   1.000000   1.000000
    5        0.893381      0.893350   1.000000   1.000000
    6        1.731289      1.731287   1.000000   1.000000
    7        3.929192      3.929189   1.000000   1.000000
    8        4.308288      4.308284   1.000000   1.000000
    9       14.182128     14.182128   0.000000   0.000000
   10       19.261072     19.261064   0.000000   0.000000
   11       20.555215     20.555225   0.000000   0.000000
   12       22.190034     22.190045   0.000000   0.000000
   13       22.705768     22.705767   0.000000   0.000000
   14       23.284371     23.284342   0.000000   0.000000
   15       26.254196     26.254231   0.000000   0.000000
   16       26.701559     26.701579   0.000000   0.000000
 
  0.2857143E+00  0.2857143E+00  0.3742002E-15  0.5102041E-02
    1       -6.035995     -6.036040   1.000000   1.000000
    2       -3.406435     -3.406482   1.000000   1.000000
    3       -0.978635     -0.978678   1.000000   1.000000
    4       -0.451141     -0.451148   1.000000   1.000000
    5        1.415426      1.415390   1.000000   1.000000
    6        1.726194      1.726191   1.000000   1.000000
    7        3.632883      3.632880   1.000000   1.000000
    8        3.945972      3.945969   1.000000   1.000000
    9       13.799074     13.799074   0.000000   0.000000
   10       20.737617     20.737620   0.000000   0.000000
   11       21.284953     21.284958   0.000000   0.000000
   12       21.634946     21.634945   0.000000   0.000000
   13       22.700838     22.700837   0.000000   0.000000
   14       24.779079     24.779071   0.000000   0.000000
   15       25.330325     25.330344   0.000000   0.000000
   16       25.647848     25.647865   0.000000   0.000000
 
  0.3571429E+00  0.2857143E+00  0.3742002E-15  0.5102041E-02
    1       -5.091264     -5.091312   1.000000   1.000000
    2       -4.228336     -4.228382   1.000000   1.000000
    3       -0.848616     -0.848623   1.000000   1.000000
    4       -0.088554     -0.088598   1.000000   1.000000
    5        0.638469      0.638433   1.000000   1.000000
    6        2.388884      2.388882   1.000000   1.000000
    7        3.262879      3.262877   1.000000   1.000000
    8        3.287946      3.287942   1.000000   1.000000
    9       13.498877     13.498876   0.000000   0.000000
   10       21.348207     21.348208   0.000000   0.000000
   11       21.580822     21.580825   0.000000   0.000000
   12       22.166060     22.166057   0.000000   0.000000
   13       22.706979     22.706992   0.000000   0.000000
   14       24.945029     24.945026   0.000000   0.000000
   15       25.516285     25.516292   0.000000   0.000000
   16       26.075011     26.075035   0.000000   0.000000
 
  0.3742002E-15  0.3742002E-15  0.1666667E+00  0.1700680E-02
    1      -11.555244    -11.555292   1.000000   1.000000
    2       -7.269896     -7.269943   1.000000   1.000000
    3       -2.213875     -2.213900   1.000000   1.000000
    4        7.125279      7.125289   1.000000   1.000000
    5        7.125369      7.125372   1.000000   1.000000
    6        8.382379      8.382384   1.000000   1.000000
    7        9.754391      9.754403   1.000000   1.000000
    8        9.754487      9.754495   1.000000   1.000000
    9       15.405063     15.405072   0.000000   0.000000
   10       15.405146     15.405167   0.000000   0.000000
   11       16.089445     16.089461   0.000000   0.000000
   12       18.162200     18.162132   0.000000   0.000000
   13       19.265395     19.265418   0.000000   0.000000
   14       19.265504     19.265531   0.000000   0.000000
   15       24.276828     24.276712   0.000000   0.000000
   16       27.428306     27.428336   0.000000   0.000000
 
  0.7142857E-01  0.3742194E-15  0.1666667E+00  0.1020408E-01
    1      -11.428514    -11.428562   1.000000   1.000000
    2       -7.150632     -7.150679   1.000000   1.000000
    3       -2.103571     -2.103595   1.000000   1.000000
    4        6.482162      6.482165   1.000000   1.000000
    5        6.860986      6.860990   1.000000   1.000000
    6        8.280852      8.280857   1.000000   1.000000
    7        9.208717      9.208725   1.000000   1.000000
    8        9.518678      9.518687   1.000000   1.000000
    9       15.383876     15.383889   0.000000   0.000000
   10       15.754893     15.754906   0.000000   0.000000
   11       16.320181     16.320197   0.000000   0.000000
   12       18.553225     18.553166   0.000000   0.000000
   13       19.386933     19.386953   0.000000   0.000000
   14       19.680049     19.680074   0.000000   0.000000
   15       24.387858     24.387748   0.000000   0.000000
   16       27.180378     27.180405   0.000000   0.000000
 
  0.1428571E+00  0.3778240E-15  0.1666667E+00  0.1020408E-01
    1      -11.049372    -11.049420   1.000000   1.000000
    2       -6.794217     -6.794264   1.000000   1.000000
    3       -1.779593     -1.779618   1.000000   1.000000
    4        4.900668      4.900662   1.000000   1.000000
    5        6.217398      6.217401   1.000000   1.000000
    6        7.597782      7.597778   1.000000   1.000000
    7        8.250411      8.250421   1.000000   1.000000
    8        8.928606      8.928614   1.000000   1.000000
    9       15.246144     15.246144   0.000000   0.000000
   10       16.609573     16.609589   0.000000   0.000000
   11       16.681875     16.681890   0.000000   0.000000
   12       19.318667     19.318653   0.000000   0.000000
   13       19.885412     19.885397   0.000000   0.000000
   14       20.755554     20.755581   0.000000   0.000000
   15       24.713315     24.713229   0.000000   0.000000
   16       26.051001     26.051008   0.000000   0.000000
 
  0.2142857E+00  0.3806259E-15  0.1666667E+00  0.1020408E-01
    1      -10.421483    -10.421531   1.000000   1.000000
    2       -6.205095     -6.205141   1.000000   1.000000
    3       -1.272051     -1.272076   1.000000   1.000000
    4        2.930662      2.930649   1.000000   1.000000
    5        5.457041      5.457043   1.000000   1.000000
    6        5.900280      5.900268   1.000000   1.000000
    7        7.721748      7.721757   1.000000   1.000000
    8        8.220193      8.220200   1.000000   1.000000
    9       15.042300     15.042288   0.000000   0.000000
   10       16.883571     16.883582   0.000000   0.000000
   11       17.572625     17.572642   0.000000   0.000000
   12       19.363953     19.363936   0.000000   0.000000
   13       21.023541     21.023531   0.000000   0.000000
   14       22.192234     22.192267   0.000000   0.000000
   15       24.588329     24.588327   0.000000   0.000000
   16       25.264150     25.264110   0.000000   0.000000
 
  0.2857143E+00  0.3671018E-15  0.1666667E+00  0.1020408E-01
    1       -9.552705     -9.552752   1.000000   1.000000
    2       -5.393314     -5.393359   1.000000   1.000000
    3       -0.757440     -0.757471   1.000000   1.000000
    4        1.034873      1.034862   1.000000   1.000000
    5        4.017795      4.017777   1.000000   1.000000
    6        4.756548      4.756548   1.000000   1.000000
    7        7.023702      7.023709   1.000000   1.000000
    8        7.557662      7.557668   1.000000   1.000000
    9       14.892818     14.892798   0.000000   0.000000
   10       17.027439     17.027446   0.000000   0.000000
   11       18.320187     18.320205   0.000000   0.000000
   12       18.830281     18.830255   0.000000   0.000000
   13       21.756147     21.756142   0.000000   0.000000
   14       23.560303     23.560302   0.000000   0.000000
   15       23.687425     23.687463   0.000000   0.000000
   16       26.179834     26.179829   0.000000   0.000000
 
  0.3571429E+00  0.3813174E-15  0.1666667E+00  0.1020408E-01
    1       -8.461189     -8.461235   1.000000   1.000000
    2       -4.386716     -4.386761   1.000000   1.000000
    3       -1.603433     -1.603468   1.000000   1.000000
    4        0.685330      0.685320   1.000000   1.000000
    5        2.191230      2.191205   1.000000   1.000000
    6        4.211859      4.211859   1.000000   1.000000
    7        6.135735      6.135739   1.000000   1.000000
    8        7.038320      7.038325   1.000000   1.000000
    9       14.799352     14.799328   0.000000   0.000000
   10       17.237770     17.237771   0.000000   0.000000
   11       18.125884     18.125861   0.000000   0.000000
   12       18.751671     18.751687   0.000000   0.000000
   13       21.959172     21.959151   0.000000   0.000000
   14       22.631642     22.631643   0.000000   0.000000
   15       24.973147     24.973191   0.000000   0.000000
   16       27.496237     27.496264   0.000000   0.000000
 
  0.4285714E+00  0.3841193E-15  0.1666667E+00  0.1020408E-01