       N       E                     dE             d eps       ncg     rms          rms(c)
DAV:   1    -0.518866739576E+02   -0.51887E+02   -0.78621E+03  6384   0.809E+02
DAV:   2    -0.106304937761E+03   -0.54418E+02   -0.50690E+02  9088   0.186E+02
DAV:   3    -0.108130187385E+03   -0.18252E+01   -0.18210E+01  6416   0.305E+01
DAV:   4    -0.108140763793E+03   -0.10576E-01   -0.10576E-01  7464   0.293E+00
DAV:   5    -0.108140848355E+03   -0.84562E-04   -0.84562E-04  6408   0.231E-01    0.391E+01
DAV:   6    -0.562283097355E+02    0.51913E+02   -0.25599E+01  6376   0.308E+01    0.215E+01
DAV:   7    -0.360840950693E+02    0.20144E+02   -0.38012E+01  7488   0.370E+01    0.320E+00
DAV:   8    -0.362124767419E+02   -0.12838E+00   -0.12113E+00  6720   0.687E+00    0.140E+00
DAV:   9    -0.362620719929E+02   -0.49595E-01   -0.11022E-01  6888   0.331E+00    0.301E-01
DAV:  10    -0.362748246546E+02   -0.12753E-01   -0.16505E-02  6848   0.131E+00    0.938E-02
DAV:  11    -0.362756522202E+02   -0.82757E-03   -0.65257E-04  7600   0.276E-01    0.503E-02
DAV:  12    -0.362760333245E+02   -0.38110E-03   -0.19808E-04  6840   0.143E-01    0.103E-02
DAV:  13    -0.362760498689E+02   -0.16544E-04   -0.12283E-05  8000   0.332E-02    0.478E-03
DAV:  14    -0.362760510306E+02   -0.11617E-05   -0.97384E-07  5496   0.103E-02    0.321E-03
DAV:  15    -0.362760517395E+02   -0.70895E-06   -0.64322E-07  4560   0.678E-03
   1 F= -.36276052E+02 E0= -.36276052E+02  d E =-.362761E+02  mag=     0.0000
       N       E                     dE             d eps       ncg     rms          rms(c)
DAV:   1    -0.362764304814E+02   -0.37945E-03   -0.21092E-04  7480   0.113E-01    0.114E-02
DAV:   2    -0.362764282036E+02    0.22778E-05   -0.36046E-06  6840   0.124E-02    0.620E-03
DAV:   3    -0.362764273079E+02    0.89572E-06   -0.15435E-06  5288   0.789E-03
   2 F= -.36276427E+02 E0= -.36276427E+02  d E =-.375568E-03  mag=    -0.0000
       N       E                     dE             d eps       ncg     rms          rms(c)
DAV:   1    -0.362774151817E+02   -0.98698E-03   -0.18481E-03  7416   0.334E-01    0.339E-02
DAV:   2    -0.362773941464E+02    0.21035E-04   -0.32000E-05  6976   0.369E-02    0.184E-02
DAV:   3    -0.362773851219E+02    0.90245E-05   -0.14169E-05  7344   0.234E-02    0.114E-03
DAV:   4    -0.362773851965E+02   -0.74536E-07   -0.15119E-07  3616   0.290E-03
   3 F= -.36277385E+02 E0= -.36277385E+02  d E =-.133346E-02  mag=    -0.0000
       N       E                     dE             d eps       ncg     rms          rms(c)
DAV:   1    -0.362786611978E+02   -0.12761E-02   -0.74673E-03  7408   0.674E-01    0.681E-02
DAV:   2    -0.362785757485E+02    0.85449E-04   -0.12969E-04  6944   0.744E-02    0.370E-02
DAV:   3    -0.362785384385E+02    0.37310E-04   -0.57049E-05  7360   0.470E-02    0.229E-03
DAV:   4    -0.362785384937E+02   -0.55220E-07   -0.60682E-07  4728   0.576E-03
   4 F= -.36278538E+02 E0= -.36278538E+02  d E =-.248675E-02  mag=    -0.0000
       N       E                     dE             d eps       ncg     rms          rms(c)
DAV:   1    -0.362782582993E+02    0.28014E-03   -0.29997E-02  7480   0.136E+00    0.136E-01
DAV:   2    -0.362779147007E+02    0.34360E-03   -0.52389E-04  6912   0.150E-01    0.742E-02
DAV:   3    -0.362777631766E+02    0.15152E-03   -0.22715E-04  7432   0.940E-02    0.463E-03
DAV:   4    -0.362777629091E+02    0.26747E-06   -0.25041E-06  6680   0.115E-02
   5 F= -.36277763E+02 E0= -.36277763E+02  d E =-.171117E-02  mag=    -0.0000
       N       E                     dE             d eps       ncg     rms          rms(c)
DAV:   1    -0.362789817124E+02   -0.12185E-02   -0.14213E-02  7464   0.931E-01    0.939E-02
DAV:   2    -0.362788158364E+02    0.16588E-03   -0.24188E-04  6920   0.102E-01    0.511E-02
DAV:   3    -0.362787408146E+02    0.75022E-04   -0.10911E-04  7368   0.650E-02    0.321E-03
DAV:   4    -0.362787400900E+02    0.72458E-06   -0.12146E-06  5712   0.827E-03
   6 F= -.36278740E+02 E0= -.36278740E+02  d E =-.268835E-02  mag=    -0.0000
