PROCAR lm decomposed
# of k-points:   96         # of bands:   16         # of ions:    4

 k-point     1 :    0.00000000 0.00000000 0.00000000     weight = 0.00085034

band     1 # energy  -11.74311286 # occ.  1.00000000
 
ion      s     py     pz     px    dxy    dyz    dz2    dxz  x2-y2    tot
    1  0.139  0.000  0.000  0.000  0.000  0.000  0.000  0.000  0.000  0.139
    2  0.139  0.000  0.000  0.000  0.000  0.000  0.000  0.000  0.000  0.139
    3  0.139  0.000  0.000  0.000  0.000  0.000  0.000  0.000  0.000  0.139
    4  0.139  0.000  0.000  0.000  0.000  0.000  0.000  0.000  0.000  0.139
tot    0.557  0.000  0.000  0.000  0.000  0.000  0.000  0.000  0.000  0.557
 
band     2 # energy   -6.16245942 # occ.  1.00000000
 
ion      s     py     pz     px    dxy    dyz    dz2    dxz  x2-y2    tot
    1  0.148  0.000  0.015  0.000  0.000  0.000  0.000  0.000  0.000  0.163
    2  0.148  0.000  0.015  0.000  0.000  0.000  0.000  0.000  0.000  0.163
    3  0.148  0.000  0.015  0.000  0.000  0.000  0.000  0.000  0.000  0.163
    4  0.148  0.000  0.015  0.000  0.000  0.000  0.000  0.000  0.000  0.163
tot    0.591  0.000  0.061  0.000  0.000  0.000  0.000  0.000  0.000  0.652
 
band     3 # energy   -3.64015267 # occ.  1.00000000
 
ion      s     py     pz     px    dxy    dyz    dz2    dxz  x2-y2    tot
    1  0.039  0.000  0.092  0.000  0.000  0.000  0.000  0.000  0.000  0.131
    2  0.039  0.000  0.092  0.000  0.000  0.000  0.000  0.000  0.000  0.131
    3  0.039  0.000  0.092  0.000  0.000  0.000  0.000  0.000  0.000  0.131
    4  0.039  0.000  0.092  0.000  0.000  0.000  0.000  0.000  0.000  0.131
tot    0.155  0.000  0.370  0.000  0.000  0.000  0.000  0.000  0.000  0.525
 
band     4 # energy    6.97769741 # occ.  1.00000000
 
ion      s     py     pz     px    dxy    dyz    dz2    dxz  x2-y2    tot
    1  0.000  0.136  0.000  0.045  0.000  0.000  0.000  0.000  0.000  0.181
    2  0.000  0.136  0.000  0.045  0.000  0.000  0.000  0.000  0.000  0.181
    3  0.000  0.136  0.000  0.045  0.000  0.000  0.000  0.000  0.000  0.181
    4  0.000  0.136  0.000  0.045  0.000  0.000  0.000  0.000  0.000  0.181
tot    0.000  0.544  0.000  0.182  0.000  0.000  0.000  0.000  0.000  0.725
 
band     5 # energy    6.97778756 # occ.  1.00000000
 
ion      s     py     pz     px    dxy    dyz    dz2    dxz  x2-y2    tot
    1  0.000  0.045  0.000  0.136  0.000  0.000  0.000  0.000  0.000  0.181
    2  0.000  0.045  0.000  0.136  0.000  0.000  0.000  0.000  0.000  0.181
    3  0.000  0.045  0.000  0.136  0.000  0.000  0.000  0.000  0.000  0.181
    4  0.000  0.045  0.000  0.136  0.000  0.000  0.000  0.000  0.000  0.181
tot    0.000  0.182  0.000  0.544  0.000  0.000  0.000  0.000  0.000  0.725
 
band     6 # energy    9.59390538 # occ.  1.00000000
 
ion      s     py     pz     px    dxy    dyz    dz2    dxz  x2-y2    tot
    1  0.000  0.000  0.187  0.000  0.000  0.000  0.000  0.000  0.000  0.187
    2  0.000  0.000  0.187  0.000  0.000  0.000  0.000  0.000  0.000  0.187
    3  0.000  0.000  0.187  0.000  0.000  0.000  0.000  0.000  0.000  0.187
    4  0.000  0.000  0.187  0.000  0.000  0.000  0.000  0.000  0.000  0.187
tot    0.000  0.000  0.748  0.000  0.000  0.000  0.000  0.000  0.000  0.748
 
band     7 # energy   10.08100352 # occ.  1.00000000
 
ion      s     py     pz     px    dxy    dyz    dz2    dxz  x2-y2    tot
    1  0.000  0.147  0.000  0.049  0.000  0.000  0.000  0.000  0.000  0.196
    2  0.000  0.147  0.000  0.049  0.000  0.000  0.000  0.000  0.000  0.196
    3  0.000  0.147  0.000  0.049  0.000  0.000  0.000  0.000  0.000  0.196
    4  0.000  0.147  0.000  0.049  0.000  0.000  0.000  0.000  0.000  0.196
tot    0.000  0.587  0.000  0.195  0.000  0.000  0.000  0.000  0.000  0.782
 
band     8 # energy   10.08110298 # occ.  1.00000000
 
ion      s     py     pz     px    dxy    dyz    dz2    dxz  x2-y2    tot
    1  0.000  0.049  0.000  0.147  0.000  0.000  0.000  0.000  0.000  0.196
    2  0.000  0.049  0.000  0.147  0.000  0.000  0.000  0.000  0.000  0.196
    3  0.000  0.049  0.000  0.147  0.000  0.000  0.000  0.000  0.000  0.196
    4  0.000  0.049  0.000  0.147  0.000  0.000  0.000  0.000  0.000  0.196
tot    0.000  0.195  0.000  0.587  0.000  0.000  0.000  0.000  0.000  0.782
 
band     9 # energy   15.04856389 # occ.  0.00000000
 
ion      s     py     pz     px    dxy    dyz    dz2    dxz  x2-y2    tot
    1  0.000  0.034  0.000  0.107  0.000  0.000  0.000  0.000  0.000  0.141
    2  0.000  0.034  0.000  0.107  0.000  0.000  0.000  0.000  0.000  0.141
    3  0.000  0.034  0.000  0.107  0.000  0.000  0.000  0.000  0.000  0.141
    4  0.000  0.034  0.000  0.107  0.000  0.000  0.000  0.000  0.000  0.141
tot    0.000  0.136  0.000  0.430  0.000  0.000  0.000  0.000  0.000  0.566
 
band    10 # energy   15.04864791 # occ.  0.00000000
 
ion      s     py     pz     px    dxy    dyz    dz2    dxz  x2-y2    tot
    1  0.000  0.107  0.000  0.034  0.000  0.000  0.000  0.000  0.000  0.141
    2  0.000  0.107  0.000  0.034  0.000  0.000  0.000  0.000  0.000  0.141
    3  0.000  0.107  0.000  0.034  0.000  0.000  0.000  0.000  0.000  0.141
    4  0.000  0.107  0.000  0.034  0.000  0.000  0.000  0.000  0.000  0.141
tot    0.000  0.430  0.000  0.136  0.000  0.000  0.000  0.000  0.000  0.566
 
band    11 # energy   15.43718009 # occ.  0.00000000
 
ion      s     py     pz     px    dxy    dyz    dz2    dxz  x2-y2    tot
    1  0.003  0.000  0.149  0.000  0.000  0.000  0.000  0.000  0.000  0.151
    2  0.003  0.000  0.149  0.000  0.000  0.000  0.000  0.000  0.000  0.151
    3  0.003  0.000  0.149  0.000  0.000  0.000  0.000  0.000  0.000  0.151
    4  0.003  0.000  0.149  0.000  0.000  0.000  0.000  0.000  0.000  0.151
tot    0.011  0.000  0.594  0.000  0.000  0.000  0.000  0.000  0.000  0.605
 
band    12 # energy   18.19221584 # occ.  0.00000000
 
ion      s     py     pz     px    dxy    dyz    dz2    dxz  x2-y2    tot
    1  0.141  0.000  0.011  0.000  0.000  0.000  0.000  0.000  0.000  0.152
    2  0.141  0.000  0.011  0.000  0.000  0.000  0.000  0.000  0.000  0.152
    3  0.141  0.000  0.011  0.000  0.000  0.000  0.000  0.000  0.000  0.152
    4  0.141  0.000  0.011  0.000  0.000  0.000  0.000  0.000  0.000  0.152
tot    0.566  0.000  0.044  0.000  0.000  0.000  0.000  0.000  0.000  0.610
 
band    13 # energy   19.60540855 # occ.  0.00000000
 
ion      s     py     pz     px    dxy    dyz    dz2    dxz  x2-y2    tot
    1  0.000  0.038  0.000  0.119  0.000  0.000  0.000  0.000  0.000  0.157
    2  0.000  0.038  0.000  0.119  0.000  0.000  0.000  0.000  0.000  0.157
    3  0.000  0.038  0.000  0.119  0.000  0.000  0.000  0.000  0.000  0.157
    4  0.000  0.038  0.000  0.119  0.000  0.000  0.000  0.000  0.000  0.157
tot    0.000  0.153  0.000  0.476  0.000  0.000  0.000  0.000  0.000  0.629
 
band    14 # energy   19.60552152 # occ.  0.00000000
 
ion      s     py     pz     px    dxy    dyz    dz2    dxz  x2-y2    tot
    1  0.000  0.119  0.000  0.038  0.000  0.000  0.000  0.000  0.000  0.157
    2  0.000  0.119  0.000  0.038  0.000  0.000  0.000  0.000  0.000  0.157
    3  0.000  0.119  0.000  0.038  0.000  0.000  0.000  0.000  0.000  0.157
    4  0.000  0.119  0.000  0.038  0.000  0.000  0.000  0.000  0.000  0.157
tot    0.000  0.476  0.000  0.153  0.000  0.000  0.000  0.000  0.000  0.629
 
band    15 # energy   24.15209001 # occ.  0.00000000
 
ion      s     py     pz     px    dxy    dyz    dz2    dxz  x2-y2    tot
    1  0.211  0.000  0.004  0.000  0.000  0.000  0.000  0.000  0.000  0.214
    2  0.211  0.000  0.004  0.000  0.000  0.000  0.000  0.000  0.000  0.214
    3  0.211  0.000  0.004  0.000  0.000  0.000  0.000  0.000  0.000  0.214
    4  0.211  0.000  0.004  0.000  0.000  0.000  0.000  0.000  0.000  0.214
tot    0.842  0.000  0.015  0.000  0.000  0.000  0.000  0.000  0.000  0.858
 
band    16 # energy   27.81680955 # occ.  0.00000000
 
ion      s     py     pz     px    dxy    dyz    dz2    dxz  x2-y2    tot
    1  0.005  0.000  0.199  0.000  0.000  0.000  0.000  0.000  0.000  0.204
    2  0.005  0.000  0.199  0.000  0.000  0.000  0.000  0.000  0.000  0.204
    3  0.005  0.000  0.199  0.000  0.000  0.000  0.000  0.000  0.000  0.204
    4  0.005  0.000  0.199  0.000  0.000  0.000  0.000  0.000  0.000  0.204
tot    0.020  0.000  0.795  0.000  0.000  0.000  0.000  0.000  0.000  0.816
 

 k-point     2 :    0.07142857 0.00000000 0.00000000     weight = 0.00510204

band     1 # energy  -11.61618335 # occ.  1.00000000
 
ion      s     py     pz     px    dxy    dyz    dz2    dxz  x2-y2    tot
    1  0.139  0.000  0.000  0.001  0.000  0.000  0.000  0.000  0.000  0.140
    2  0.139  0.000  0.000  0.001  0.000  0.000  0.000  0.000  0.000  0.140
    3  0.139  0.000  0.000  0.001  0.000  0.000  0.000  0.000  0.000  0.140
    4  0.139  0.000  0.000  0.001  0.000  0.000  0.000  0.000  0.000  0.140
tot    0.555  0.001  0.000  0.003  0.000  0.000  0.000  0.000  0.000  0.558
 
band     2 # energy   -6.04801563 # occ.  1.00000000
 
ion      s     py     pz     px    dxy    dyz    dz2    dxz  x2-y2    tot
    1  0.147  0.000  0.015  0.001  0.000  0.000  0.000  0.000  0.000  0.163
    2  0.147  0.000  0.015  0.001  0.000  0.000  0.000  0.000  0.000  0.163
    3  0.147  0.000  0.015  0.001  0.000  0.000  0.000  0.000  0.000  0.163
    4  0.147  0.000  0.015  0.001  0.000  0.000  0.000  0.000  0.000  0.163
tot    0.586  0.001  0.061  0.004  0.000  0.000  0.000  0.000  0.000  0.653
 
band     3 # energy   -3.52180942 # occ.  1.00000000
 
ion      s     py     pz     px    dxy    dyz    dz2    dxz  x2-y2    tot
    1  0.039  0.000  0.093  0.000  0.000  0.000  0.000  0.000  0.000  0.132
    2  0.039  0.000  0.093  0.000  0.000  0.000  0.000  0.000  0.000  0.132
    3  0.039  0.000  0.093  0.000  0.000  0.000  0.000  0.000  0.000  0.132
    4  0.039  0.000  0.093  0.000  0.000  0.000  0.000  0.000  0.000  0.132
tot    0.156  0.000  0.370  0.000  0.000  0.000  0.000  0.000  0.000  0.527
 
band     4 # energy    6.33204847 # occ.  1.00000000
 
ion      s     py     pz     px    dxy    dyz    dz2    dxz  x2-y2    tot
    1  0.008  0.042  0.000  0.127  0.000  0.000  0.000  0.000  0.000  0.177
    2  0.008  0.042  0.000  0.127  0.000  0.000  0.000  0.000  0.000  0.177
    3  0.008  0.042  0.000  0.127  0.000  0.000  0.000  0.000  0.000  0.177
    4  0.008  0.042  0.000  0.127  0.000  0.000  0.000  0.000  0.000  0.177
tot    0.032  0.169  0.002  0.506  0.000  0.000  0.000  0.000  0.000  0.709
 
band     5 # energy    6.71141845 # occ.  1.00000000
 
ion      s     py     pz     px    dxy    dyz    dz2    dxz  x2-y2    tot
    1  0.000  0.134  0.000  0.045  0.000  0.000  0.000  0.000  0.000  0.179
    2  0.000  0.134  0.000  0.045  0.000  0.000  0.000  0.000  0.000  0.179
    3  0.000  0.134  0.000  0.045  0.000  0.000  0.000  0.000  0.000  0.179
    4  0.000  0.134  0.000  0.045  0.000  0.000  0.000  0.000  0.000  0.179
tot    0.000  0.538  0.000  0.179  0.000  0.000  0.000  0.000  0.000  0.717
 
band     6 # energy    9.40034788 # occ.  1.00000000
 
ion      s     py     pz     px    dxy    dyz    dz2    dxz  x2-y2    tot
    1  0.000  0.001  0.182  0.003  0.000  0.000  0.000  0.000  0.000  0.186
    2  0.000  0.001  0.182  0.003  0.000  0.000  0.000  0.000  0.000  0.186
    3  0.000  0.001  0.182  0.003  0.000  0.000  0.000  0.000  0.000  0.186
    4  0.000  0.001  0.182  0.003  0.000  0.000  0.000  0.000  0.000  0.186
tot    0.000  0.004  0.727  0.012  0.000  0.000  0.000  0.000  0.000  0.743
 
band     7 # energy    9.52993982 # occ.  1.00000000
 
ion      s     py     pz     px    dxy    dyz    dz2    dxz  x2-y2    tot
    1  0.005  0.046  0.004  0.138  0.000  0.000  0.000  0.000  0.000  0.193
    2  0.005  0.046  0.004  0.138  0.000  0.000  0.000  0.000  0.000  0.193
    3  0.005  0.046  0.004  0.138  0.000  0.000  0.000  0.000  0.000  0.193
    4  0.005  0.046  0.004  0.138  0.000  0.000  0.000  0.000  0.000  0.193
tot    0.022  0.184  0.015  0.551  0.000  0.000  0.000  0.000  0.000  0.771
 
band     8 # energy    9.84366262 # occ.  1.00000000
 
ion      s     py     pz     px    dxy    dyz    dz2    dxz  x2-y2    tot
    1  0.000  0.145  0.000  0.048  0.000  0.000  0.000  0.000  0.000  0.194
    2  0.000  0.145  0.000  0.048  0.000  0.000  0.000  0.000  0.000  0.194
    3  0.000  0.145  0.000  0.048  0.000  0.000  0.000  0.000  0.000  0.194
    4  0.000  0.145  0.000  0.048  0.000  0.000  0.000  0.000  0.000  0.194
tot    0.000  0.582  0.000  0.194  0.000  0.000  0.000  0.000  0.000  0.776
 
band     9 # energy   15.13333714 # occ.  0.00000000
 
ion      s     py     pz     px    dxy    dyz    dz2    dxz  x2-y2    tot
    1  0.005  0.032  0.005  0.097  0.000  0.000  0.000  0.000  0.000  0.140
    2  0.005  0.032  0.005  0.097  0.000  0.000  0.000  0.000  0.000  0.140
    3  0.005  0.032  0.005  0.097  0.000  0.000  0.000  0.000  0.000  0.140
    4  0.005  0.032  0.005  0.097  0.000  0.000  0.000  0.000  0.000  0.140
tot    0.021  0.130  0.019  0.389  0.000  0.000  0.000  0.000  0.000  0.559
 
band    10 # energy   15.39419495 # occ.  0.00000000
 
ion      s     py     pz     px    dxy    dyz    dz2    dxz  x2-y2    tot
    1  0.000  0.108  0.000  0.036  0.000  0.000  0.000  0.000  0.000  0.144
    2  0.000  0.108  0.000  0.036  0.000  0.000  0.000  0.000  0.000  0.144
    3  0.000  0.108  0.000  0.036  0.000  0.000  0.000  0.000  0.000  0.144
    4  0.000  0.108  0.000  0.036  0.000  0.000  0.000  0.000  0.000  0.144
tot    0.000  0.433  0.000  0.144  0.000  0.000  0.000  0.000  0.000  0.577
 
band    11 # energy   15.66280633 # occ.  0.00000000
 
ion      s     py     pz     px    dxy    dyz    dz2    dxz  x2-y2    tot
    1  0.005  0.001  0.145  0.003  0.000  0.000  0.000  0.000  0.000  0.153
    2  0.005  0.001  0.145  0.003  0.000  0.000  0.000  0.000  0.000  0.153
    3  0.005  0.001  0.145  0.003  0.000  0.000  0.000  0.000  0.000  0.153
    4  0.005  0.001  0.145  0.003  0.000  0.000  0.000  0.000  0.000  0.153
tot    0.018  0.003  0.578  0.010  0.000  0.000  0.000  0.000  0.000  0.610
 
band    12 # energy   18.59835242 # occ.  0.00000000
 
ion      s     py     pz     px    dxy    dyz    dz2    dxz  x2-y2    tot
    1  0.131  0.003  0.011  0.010  0.000  0.000  0.000  0.000  0.000  0.155
    2  0.131  0.003  0.011  0.010  0.000  0.000  0.000  0.000  0.000  0.155
    3  0.131  0.003  0.011  0.010  0.000  0.000  0.000  0.000  0.000  0.155
    4  0.131  0.003  0.011  0.010  0.000  0.000  0.000  0.000  0.000  0.155
tot    0.523  0.013  0.045  0.039  0.000  0.000  0.000  0.000  0.000  0.620
 
band    13 # energy   19.73229632 # occ.  0.00000000
 
ion      s     py     pz     px    dxy    dyz    dz2    dxz  x2-y2    tot
    1  0.004  0.038  0.001  0.114  0.000  0.000  0.000  0.000  0.000  0.156
    2  0.004  0.038  0.001  0.114  0.000  0.000  0.000  0.000  0.000  0.156
    3  0.004  0.038  0.001  0.114  0.000  0.000  0.000  0.000  0.000  0.156
    4  0.004  0.038  0.001  0.114  0.000  0.000  0.000  0.000  0.000  0.156
tot    0.014  0.152  0.002  0.456  0.000  0.000  0.000  0.000  0.000  0.625
 
band    14 # energy   20.02100957 # occ.  0.00000000
 
ion      s     py     pz     px    dxy    dyz    dz2    dxz  x2-y2    tot
    1  0.000  0.120  0.000  0.040  0.000  0.000  0.000  0.000  0.000  0.160
    2  0.000  0.120  0.000  0.040  0.000  0.000  0.000  0.000  0.000  0.160
    3  0.000  0.120  0.000  0.040  0.000  0.000  0.000  0.000  0.000  0.160
    4  0.000  0.120  0.000  0.040  0.000  0.000  0.000  0.000  0.000  0.160
tot    0.000  0.481  0.000  0.160  0.000  0.000  0.000  0.000  0.000  0.641
 
band    15 # energy   24.31052376 # occ.  0.00000000
 
ion      s     py     pz     px    dxy    dyz    dz2    dxz  x2-y2    tot
    1  0.201  0.002  0.004  0.007  0.000  0.000  0.000  0.000  0.000  0.214
    2  0.201  0.002  0.004  0.007  0.000  0.000  0.000  0.000  0.000  0.214
    3  0.201  0.002  0.004  0.007  0.000  0.000  0.000  0.000  0.000  0.214
    4  0.201  0.002  0.004  0.007  0.000  0.000  0.000  0.000  0.000  0.214
tot    0.805  0.009  0.017  0.027  0.000  0.000  0.000  0.000  0.000  0.858
 
band    16 # energy   27.65696152 # occ.  0.00000000
 
ion      s     py     pz     px    dxy    dyz    dz2    dxz  x2-y2    tot
    1  0.006  0.000  0.196  0.001  0.000  0.000  0.000  0.000  0.000  0.204
    2  0.006  0.000  0.196  0.001  0.000  0.000  0.000  0.000  0.000  0.204
    3  0.006  0.000  0.196  0.001  0.000  0.000  0.000  0.000  0.000  0.204
    4  0.006  0.000  0.196  0.001  0.000  0.000  0.000  0.000  0.000  0.204
tot    0.024  0.002  0.784  0.006  0.000  0.000  0.000  0.000  0.000  0.815
 

 k-point     3 :    0.14285714 0.00000000 0.00000000     weight = 0.00510204

band     1 # energy  -11.23644615 # occ.  1.00000000
 
ion      s     py     pz     px    dxy    dyz    dz2    dxz  x2-y2    tot
    1  0.137  0.001  0.000  0.003  0.000  0.000  0.000  0.000  0.000  0.140
    2  0.137  0.001  0.000  0.003  0.000  0.000  0.000  0.000  0.000  0.140
    3  0.137  0.001  0.000  0.003  0.000  0.000  0.000  0.000  0.000  0.140
    4  0.137  0.001  0.000  0.003  0.000  0.000  0.000  0.000  0.000  0.140
tot    0.548  0.003  0.000  0.010  0.000  0.000  0.000  0.000  0.000  0.562
 
band     2 # energy   -5.70559202 # occ.  1.00000000
 
ion      s     py     pz     px    dxy    dyz    dz2    dxz  x2-y2    tot
    1  0.144  0.001  0.015  0.004  0.000  0.000  0.000  0.000  0.000  0.164
    2  0.144  0.001  0.015  0.004  0.000  0.000  0.000  0.000  0.000  0.164
    3  0.144  0.001  0.015  0.004  0.000  0.000  0.000  0.000  0.000  0.164
    4  0.144  0.001  0.015  0.004  0.000  0.000  0.000  0.000  0.000  0.164
tot    0.575  0.005  0.061  0.015  0.000  0.000  0.000  0.000  0.000  0.655
 
band     3 # energy   -3.17287088 # occ.  1.00000000
 
ion      s     py     pz     px    dxy    dyz    dz2    dxz  x2-y2    tot
    1  0.040  0.000  0.093  0.000  0.000  0.000  0.000  0.000  0.000  0.133
    2  0.040  0.000  0.093  0.000  0.000  0.000  0.000  0.000  0.000  0.133
    3  0.040  0.000  0.093  0.000  0.000  0.000  0.000  0.000  0.000  0.133
    4  0.040  0.000  0.093  0.000  0.000  0.000  0.000  0.000  0.000  0.133
tot    0.161  0.000  0.372  0.001  0.000  0.000  0.000  0.000  0.000  0.534
 
band     4 # energy    4.74276371 # occ.  1.00000000
 
ion      s     py     pz     px    dxy    dyz    dz2    dxz  x2-y2    tot
    1  0.023  0.036  0.002  0.108  0.000  0.000  0.000  0.000  0.000  0.169
    2  0.023  0.036  0.002  0.108  0.000  0.000  0.000  0.000  0.000  0.169
    3  0.023  0.036  0.002  0.108  0.000  0.000  0.000  0.000  0.000  0.169
    4  0.023  0.036  0.002  0.108  0.000  0.000  0.000  0.000  0.000  0.169
tot    0.091  0.145  0.006  0.434  0.000  0.000  0.000  0.000  0.000  0.676
 
band     5 # energy    6.06338934 # occ.  1.00000000
 
ion      s     py     pz     px    dxy    dyz    dz2    dxz  x2-y2    tot
    1  0.000  0.131  0.000  0.044  0.000  0.000  0.000  0.000  0.000  0.175
    2  0.000  0.131  0.000  0.044  0.000  0.000  0.000  0.000  0.000  0.175
    3  0.000  0.131  0.000  0.044  0.000  0.000  0.000  0.000  0.000  0.175
    4  0.000  0.131  0.000  0.044  0.000  0.000  0.000  0.000  0.000  0.175
tot    0.000  0.525  0.000  0.175  0.000  0.000  0.000  0.000  0.000  0.700
 
band     6 # energy    8.16772005 # occ.  1.00000000
 
ion      s     py     pz     px    dxy    dyz    dz2    dxz  x2-y2    tot
    1  0.018  0.040  0.009  0.121  0.000  0.000  0.000  0.000  0.000  0.187
    2  0.018  0.040  0.009  0.121  0.000  0.000  0.000  0.000  0.000  0.187
    3  0.018  0.040  0.009  0.121  0.000  0.000  0.000  0.000  0.000  0.187
    4  0.018  0.040  0.009  0.121  0.000  0.000  0.000  0.000  0.000  0.187
tot    0.070  0.161  0.035  0.482  0.000  0.000  0.000  0.000  0.000  0.748
 
band     7 # energy    8.86458899 # occ.  1.00000000
 
ion      s     py     pz     px    dxy    dyz    dz2    dxz  x2-y2    tot
    1  0.001  0.003  0.170  0.009  0.000  0.000  0.000  0.000  0.000  0.183
    2  0.001  0.003  0.170  0.009  0.000  0.000  0.000  0.000  0.000  0.183
    3  0.001  0.003  0.170  0.009  0.000  0.000  0.000  0.000  0.000  0.183
    4  0.001  0.003  0.170  0.009  0.000  0.000  0.000  0.000  0.000  0.183
tot    0.003  0.012  0.679  0.036  0.000  0.000  0.000  0.000  0.000  0.731
 
band     8 # energy    9.25333150 # occ.  1.00000000
 
ion      s     py     pz     px    dxy    dyz    dz2    dxz  x2-y2    tot
    1  0.000  0.143  0.000  0.048  0.000  0.000  0.000  0.000  0.000  0.190
    2  0.000  0.143  0.000  0.048  0.000  0.000  0.000  0.000  0.000  0.190
    3  0.000  0.143  0.000  0.048  0.000  0.000  0.000  0.000  0.000  0.190
    4  0.000  0.143  0.000  0.048  0.000  0.000  0.000  0.000  0.000  0.190
tot    0.000  0.571  0.000  0.191  0.000  0.000  0.000  0.000  0.000  0.762
 
band     9 # energy   15.17695546 # occ.  0.00000000
 
ion      s     py     pz     px    dxy    dyz    dz2    dxz  x2-y2    tot
    1  0.022  0.024  0.014  0.073  0.000  0.000  0.000  0.000  0.000  0.133
    2  0.022  0.024  0.014  0.073  0.000  0.000  0.000  0.000  0.000  0.133
    3  0.022  0.024  0.014  0.073  0.000  0.000  0.000  0.000  0.000  0.133
    4  0.022  0.024  0.014  0.073  0.000  0.000  0.000  0.000  0.000  0.133
tot    0.087  0.097  0.058  0.292  0.000  0.000  0.000  0.000  0.000  0.534
 
band    10 # energy   16.16296178 # occ.  0.00000000
 
ion      s     py     pz     px    dxy    dyz    dz2    dxz  x2-y2    tot
    1  0.008  0.002  0.139  0.005  0.000  0.000  0.000  0.000  0.000  0.154
    2  0.008  0.002  0.139  0.005  0.000  0.000  0.000  0.000  0.000  0.154
    3  0.008  0.002  0.139  0.005  0.000  0.000  0.000  0.000  0.000  0.154
    4  0.008  0.002  0.139  0.005  0.000  0.000  0.000  0.000  0.000  0.154
tot    0.032  0.007  0.556  0.020  0.000  0.000  0.000  0.000  0.000  0.615
 
band    11 # energy   16.22339681 # occ.  0.00000000
 
ion      s     py     pz     px    dxy    dyz    dz2    dxz  x2-y2    tot
    1  0.000  0.112  0.000  0.037  0.000  0.000  0.000  0.000  0.000  0.149
    2  0.000  0.112  0.000  0.037  0.000  0.000  0.000  0.000  0.000  0.149
    3  0.000  0.112  0.000  0.037  0.000  0.000  0.000  0.000  0.000  0.149
    4  0.000  0.112  0.000  0.037  0.000  0.000  0.000  0.000  0.000  0.149
tot    0.000  0.448  0.000  0.149  0.000  0.000  0.000  0.000  0.000  0.597
 
band    12 # energy   19.61308186 # occ.  0.00000000
 
ion      s     py     pz     px    dxy    dyz    dz2    dxz  x2-y2    tot
    1  0.102  0.011  0.014  0.033  0.000  0.000  0.000  0.000  0.000  0.160
    2  0.102  0.011  0.014  0.033  0.000  0.000  0.000  0.000  0.000  0.160
    3  0.102  0.011  0.014  0.033  0.000  0.000  0.000  0.000  0.000  0.160
    4  0.102  0.011  0.014  0.033  0.000  0.000  0.000  0.000  0.000  0.160
tot    0.409  0.044  0.056  0.131  0.000  0.000  0.000  0.000  0.000  0.639
 
band    13 # energy   19.96347869 # occ.  0.00000000
 
ion      s     py     pz     px    dxy    dyz    dz2    dxz  x2-y2    tot
    1  0.021  0.033  0.002  0.098  0.000  0.000  0.000  0.000  0.000  0.154
    2  0.021  0.033  0.002  0.098  0.000  0.000  0.000  0.000  0.000  0.154
    3  0.021  0.033  0.002  0.098  0.000  0.000  0.000  0.000  0.000  0.154
    4  0.021  0.033  0.002  0.098  0.000  0.000  0.000  0.000  0.000  0.154
tot    0.085  0.131  0.010  0.392  0.000  0.000  0.000  0.000  0.000  0.617
 
band    14 # energy   21.10044002 # occ.  0.00000000
 
ion      s     py     pz     px    dxy    dyz    dz2    dxz  x2-y2    tot
    1  0.000  0.126  0.000  0.042  0.000  0.000  0.000  0.000  0.000  0.168
    2  0.000  0.126  0.000  0.042  0.000  0.000  0.000  0.000  0.000  0.168
    3  0.000  0.126  0.000  0.042  0.000  0.000  0.000  0.000  0.000  0.168
    4  0.000  0.126  0.000  0.042  0.000  0.000  0.000  0.000  0.000  0.168
tot    0.000  0.504  0.000  0.168  0.000  0.000  0.000  0.000  0.000  0.671
 
band    15 # energy   24.77913839 # occ.  0.00000000
 
ion      s     py     pz     px    dxy    dyz    dz2    dxz  x2-y2    tot
    1  0.173  0.009  0.006  0.028  0.000  0.000  0.000  0.000  0.000  0.216
    2  0.173  0.009  0.006  0.028  0.000  0.000  0.000  0.000  0.000  0.216
    3  0.173  0.009  0.006  0.028  0.000  0.000  0.000  0.000  0.000  0.216
    4  0.173  0.009  0.006  0.028  0.000  0.000  0.000  0.000  0.000  0.216
tot    0.692  0.037  0.024  0.111  0.000  0.000  0.000  0.000  0.000  0.865
 
band    16 # energy   25.84640627 # occ.  0.00000000
 
ion      s     py     pz     px    dxy    dyz    dz2    dxz  x2-y2    tot
    1  0.002  0.002  0.010  0.007  0.000  0.000  0.000  0.000  0.000  0.021
    2  0.002  0.002  0.010  0.007  0.000  0.000  0.000  0.000  0.000  0.021
    3  0.002  0.002  0.010  0.007  0.000  0.000  0.000  0.000  0.000  0.021
    4  0.002  0.002  0.010  0.007  0.000  0.000  0.000  0.000  0.000  0.021
tot    0.008  0.009  0.039  0.027  0.000  0.000  0.000  0.000  0.000  0.084
 

 k-point     4 :    0.21428571 0.00000000 0.00000000     weight = 0.00510204

band     1 # energy  -10.60747920 # occ.  1.00000000
 
ion      s     py     pz     px    dxy    dyz    dz2    dxz  x2-y2    tot
    1  0.134  0.002  0.000  0.006  0.000  0.000  0.000  0.000  0.000  0.142
    2  0.134  0.002  0.000  0.006  0.000  0.000  0.000  0.000  0.000  0.142
    3  0.134  0.002  0.000  0.006  0.000  0.000  0.000  0.000  0.000  0.142
    4  0.134  0.002  0.000  0.006  0.000  0.000  0.000  0.000  0.000  0.142
tot    0.537  0.007  0.000  0.022  0.000  0.000  0.000  0.000  0.000  0.567
 
band     2 # energy   -5.13774499 # occ.  1.00000000
 
ion      s     py     pz     px    dxy    dyz    dz2    dxz  x2-y2    tot
    1  0.139  0.003  0.015  0.008  0.000  0.000  0.000  0.000  0.000  0.165
    2  0.139  0.003  0.015  0.008  0.000  0.000  0.000  0.000  0.000  0.165
    3  0.139  0.003  0.015  0.008  0.000  0.000  0.000  0.000  0.000  0.165
    4  0.139  0.003  0.015  0.008  0.000  0.000  0.000  0.000  0.000  0.165
tot    0.555  0.011  0.061  0.032  0.000  0.000  0.000  0.000  0.000  0.660
 
band     3 # energy   -2.61765343 # occ.  1.00000000
 
ion      s     py     pz     px    dxy    dyz    dz2    dxz  x2-y2    tot
    1  0.044  0.000  0.093  0.000  0.000  0.000  0.000  0.000  0.000  0.137
    2  0.044  0.000  0.093  0.000  0.000  0.000  0.000  0.000  0.000  0.137
    3  0.044  0.000  0.093  0.000  0.000  0.000  0.000  0.000  0.000  0.137
    4  0.044  0.000  0.093  0.000  0.000  0.000  0.000  0.000  0.000  0.137
tot    0.176  0.000  0.371  0.001  0.000  0.000  0.000  0.000  0.000  0.548
 
band     4 # energy    2.75534994 # occ.  1.00000000
 
ion      s     py     pz     px    dxy    dyz    dz2    dxz  x2-y2    tot
    1  0.034  0.031  0.004  0.092  0.000  0.000  0.000  0.000  0.000  0.160
    2  0.034  0.031  0.004  0.092  0.000  0.000  0.000  0.000  0.000  0.160
    3  0.034  0.031  0.004  0.092  0.000  0.000  0.000  0.000  0.000  0.160
    4  0.034  0.031  0.004  0.092  0.000  0.000  0.000  0.000  0.000  0.160
tot    0.136  0.123  0.015  0.368  0.000  0.000  0.000  0.000  0.000  0.641
 
band     5 # energy    5.29986848 # occ.  1.00000000
 
ion      s     py     pz     px    dxy    dyz    dz2    dxz  x2-y2    tot
    1  0.000  0.129  0.000  0.043  0.000  0.000  0.000  0.000  0.000  0.171
    2  0.000  0.129  0.000  0.043  0.000  0.000  0.000  0.000  0.000  0.171
    3  0.000  0.129  0.000  0.043  0.000  0.000  0.000  0.000  0.000  0.171
    4  0.000  0.129  0.000  0.043  0.000  0.000  0.000  0.000  0.000  0.171
tot    0.000  0.514  0.000  0.171  0.000  0.000  0.000  0.000  0.000  0.686
 
band     6 # energy    6.44540361 # occ.  1.00000000
 
ion      s     py     pz     px    dxy    dyz    dz2    dxz  x2-y2    tot
    1  0.033  0.035  0.011  0.104  0.000  0.000  0.000  0.000  0.000  0.182
    2  0.033  0.035  0.011  0.104  0.000  0.000  0.000  0.000  0.000  0.182
    3  0.033  0.035  0.011  0.104  0.000  0.000  0.000  0.000  0.000  0.182
    4  0.033  0.035  0.011  0.104  0.000  0.000  0.000  0.000  0.000  0.182
tot    0.130  0.139  0.045  0.416  0.000  0.000  0.000  0.000  0.000  0.730
 
band     7 # energy    8.03833193 # occ.  1.00000000
 
ion      s     py     pz     px    dxy    dyz    dz2    dxz  x2-y2    tot
    1  0.003  0.005  0.156  0.014  0.000  0.000  0.000  0.000  0.000  0.178
    2  0.003  0.005  0.156  0.014  0.000  0.000  0.000  0.000  0.000  0.178
    3  0.003  0.005  0.156  0.014  0.000  0.000  0.000  0.000  0.000  0.178
    4  0.003  0.005  0.156  0.014  0.000  0.000  0.000  0.000  0.000  0.178
tot    0.011  0.019  0.624  0.056  0.000  0.000  0.000  0.000  0.000  0.711
 
band     8 # energy    8.54570789 # occ.  1.00000000
 
ion      s     py     pz     px    dxy    dyz    dz2    dxz  x2-y2    tot
    1  0.000  0.141  0.000  0.047  0.000  0.000  0.000  0.000  0.000  0.188
    2  0.000  0.141  0.000  0.047  0.000  0.000  0.000  0.000  0.000  0.188
    3  0.000  0.141  0.000  0.047  0.000  0.000  0.000  0.000  0.000  0.188
    4  0.000  0.141  0.000  0.047  0.000  0.000  0.000  0.000  0.000  0.188
tot    0.000  0.563  0.000  0.188  0.000  0.000  0.000  0.000  0.000  0.750
 
band     9 # energy   15.08022125 # occ.  0.00000000
 
ion      s     py     pz     px    dxy    dyz    dz2    dxz  x2-y2    tot
    1  0.039  0.016  0.022  0.048  0.000  0.000  0.000  0.000  0.000  0.124
    2  0.039  0.016  0.022  0.048  0.000  0.000  0.000  0.000  0.000  0.124
    3  0.039  0.016  0.022  0.048  0.000  0.000  0.000  0.000  0.000  0.124
    4  0.039  0.016  0.022  0.048  0.000  0.000  0.000  0.000  0.000  0.124
tot    0.154  0.064  0.089  0.191  0.000  0.000  0.000  0.000  0.000  0.498
 
band    10 # energy   16.73990432 # occ.  0.00000000
 
ion      s     py     pz     px    dxy    dyz    dz2    dxz  x2-y2    tot
    1  0.009  0.002  0.135  0.007  0.000  0.000  0.000  0.000  0.000  0.153
    2  0.009  0.002  0.135  0.007  0.000  0.000  0.000  0.000  0.000  0.153
    3  0.009  0.002  0.135  0.007  0.000  0.000  0.000  0.000  0.000  0.153
    4  0.009  0.002  0.135  0.007  0.000  0.000  0.000  0.000  0.000  0.153