unknown system                          
            1
     2.513094    0.000000    0.000000
    -1.256547    2.176403    0.000000
     0.000000    0.000000    4.181402
   C 
   4
Direct configuration=     1
   0.33333300  0.66666700  0.93722800
   0.66666700  0.33333300  0.43722800
   0.66666700  0.33333300  0.06277200
   0.33333300  0.66666700  0.56277200
unknown system                          
            1
     2.512540    0.000000    0.000000
    -1.256270    2.175923   -0.000000
     0.000000    0.000000    4.180532
   C 
   4
Direct configuration=     2
   0.33333300  0.66666700  0.93722985
   0.66666700  0.33333300  0.43722985
   0.66666700  0.33333300  0.06277015
   0.33333300  0.66666700  0.56277015
unknown system                          
            1
     2.510878    0.000000    0.000000
    -1.255439    2.174483   -0.000000
     0.000000    0.000000    4.177923
   C 
   4
Direct configuration=     3
   0.33333300  0.66666700  0.93723542
   0.66666700  0.33333300  0.43723542
   0.66666700  0.33333300  0.06276458
   0.33333300  0.66666700  0.56276458
unknown system                          
            1
     2.507553    0.000000    0.000000
    -1.253776    2.171604   -0.000000
     0.000000    0.000000    4.172703
   C 
   4
Direct configuration=     4
   0.33333300  0.66666700  0.93724655
   0.66666700  0.33333300  0.43724655
   0.66666700  0.33333300  0.06275345
   0.33333300  0.66666700  0.56275345
unknown system                          
            1
     2.500903    0.000000    0.000000
    -1.250452    2.165846   -0.000000
     0.000000    0.000000    4.162265
   C 
   4
Direct configuration=     5
   0.33333300  0.66666700  0.93726885
   0.66666700  0.33333300  0.43726885
   0.66666700  0.33333300  0.06273115
   0.33333300  0.66666700  0.56273115
unknown system                          
            1
     2.505502    0.000000    0.000000
    -1.252751    2.169829   -0.000000
     0.000000    0.000000    4.169485
   C 
   4
Direct configuration=     6
   0.33333300  0.66666700  0.93725339
   0.66666700  0.33333300  0.43725339
   0.66666700  0.33333300  0.06274661
   0.33333300  0.66666700  0.56274661
