  32   32
1 1
    44.529361478589998     0.000000000000000     0.000000000000000
     0.000000000000000    44.529351389349998    -0.000000000000000
     0.000000000000000    -0.000000000000000    42.855497468469999
1 2
    -6.342357503250000     0.000000000000000    -0.000000000000000
     0.000000000000000     2.207426741360000    -1.324271363680000
    -0.000000000000000    -1.324271363680000     1.264106823360000
1 3
     0.069981130620000     3.702165063309999     1.146852798940000
     3.702165063309999    -4.204910331080000     0.662135681840000
     1.146852798940000     0.662135681840000     1.264106823360000
1 4
     0.069981130620000    -3.702165063309999    -1.146852798940000
    -3.702165063309999    -4.204910331080000     0.662135681840000
    -1.146852798940000     0.662135681840000     1.264106823360000
1 5
    -0.108851369040000    -0.000000000000000     0.000000000000000
    -0.000000000000000    -0.108851369040000     0.000000000000000
     0.000000000000000     0.000000000000000     0.015004381420000
1 6
     0.127395272050000    -0.000000000000000    -0.000000000000000
    -0.000000000000000    -0.072956495540000    -0.082043898030000
    -0.000000000000000    -0.082043898030000    -0.067519596280000
1 7
    -0.022868583670000    -0.086754852450000     0.071052151490000
    -0.086754852450000     0.077307360180000     0.041022009070000
     0.071052151490000     0.041022009070000    -0.067519596280000
1 8
    -0.022868583670000     0.086754852450000    -0.071052151490000
     0.086754852450000     0.077307360180000     0.041022009070000
    -0.071052151490000     0.041022009070000    -0.067519596280000
1 9
     0.112922977930000    -0.108212984390000     2.327040927280000
    -0.108212984390000    -0.012030698040000    -1.343517549860000
     0.998890250820000    -0.576709486210000    -1.799265816500000
1 10
     0.112922977930000     0.108212984390000    -2.327040927280000
     0.108212984390000    -0.012030698040000    -1.343517549860000
    -0.998890250820000    -0.576709486210000    -1.799265816500000
1 11
    -0.074507475970000     0.000000000000000     0.000000000000000
     0.000000000000000     0.175399755860000     2.687035219830000
     0.000000000000000     1.153419092530000    -1.799265816500000
1 12
     0.009583697010000     0.000000000000000     0.000000000000000
     0.000000000000000     0.009583697010000     0.000000000000000
    -0.000000000000000    -0.000000000000000    -0.147006712740000
1 13
     0.112922977930000    -0.108212984390000    -0.998890250820000
    -0.108212984390000    -0.012030698040000     0.576709486210000
    -2.327040927280000     1.343517549860000    -1.799265816500000
1 14
     0.112922977930000     0.108212984390000     0.998890250820000
     0.108212984390000    -0.012030698040000     0.576709486210000
     2.327040927280000     1.343517549860000    -1.799265816500000
1 15
    -0.074507475970000     0.000000000000000    -0.000000000000000
     0.000000000000000     0.175399755860000    -1.153419092530000
    -0.000000000000000    -2.687035219830000    -1.799265816500000
1 16
     0.009583697010000    -0.000000000000000     0.000000000000000
    -0.000000000000000     0.009583697010000    -0.000000000000000
    -0.000000000000000     0.000000000000000    -0.147006712740000
1 17
    -0.332431449750000     0.244973473360000    -0.015404227610000
     0.244973473360000    -0.049560388750000     0.008893665060000
    -0.015404227610000     0.008893665060000     0.170259648410000
1 18
    -0.332431449750000    -0.244973473360000     0.015404227610000
    -0.244973473360000    -0.049560388750000     0.008893665060000
     0.015404227610000     0.008893665060000     0.170259648410000
1 19
     0.091875141750000    -0.000000000000000    -0.000000000000000
    -0.000000000000000    -0.473866860140000    -0.017787330120000
    -0.000000000000000    -0.017787330120000     0.170259648410000
1 20
    -0.011564431020000    -0.000000000000000     0.000000000000000
    -0.000000000000000    -0.011564431020000    -0.000000000000000
     0.000000000000000    -0.000000000000000    -0.108240849910000
1 21
   -12.544746259319998     3.021744315510000    -2.088395088940000
     3.021744315510000    -9.055534064030001     1.205735285120000
    -2.088395088940000     1.205735285120000    -7.699625846460000
1 22
   -12.544746259319998    -3.021744315510000     2.088395088940000
    -3.021744315510000    -9.055534064030001     1.205735285120000
     2.088395088940000     1.205735285120000    -7.699625846460000
1 23
    -7.310930909080000    -0.000000000000000    -0.000000000000000
    -0.000000000000000   -14.289348213170001    -2.411470570240000
    -0.000000000000000    -2.411470570240000    -7.699625846460000
1 24
     0.636678967890000     0.000000000000000    -0.000000000000000
     0.000000000000000     0.636678847780000    -0.000000000000000
    -0.000000000000000    -0.000000000000000     0.011714688630000
1 25
    -6.822302289720000    -0.000000000000000     0.000000000000000
    -0.000000000000000    -6.822300728290000    -0.000000000000000
     0.000000000000000     0.000000000000000   -11.331878962509998
1 26
     0.281087547610000     0.000000000000000     0.000000000000000
     0.000000000000000     0.123093532400000     0.041128666750000
    -0.000000000000000    -0.041128666750000     0.078772221740000
1 27
     0.162592066230000    -0.068413454900000    -0.035618500390000
    -0.068413454900000     0.241589013780000    -0.020564393430000
     0.035618500390000     0.020564393430000     0.078772221740000
1 28
     0.162592066230000     0.068413454900000     0.035618500390000
     0.068413454900000     0.241589013780000    -0.020564393430000
    -0.035618500390000     0.020564393430000     0.078772221740000
1 29
     0.239148738910000     0.000000000000000     0.000000000000000
     0.000000000000000     0.239148738910000     0.000000000000000
     0.000000000000000     0.000000000000000    -0.064742653080000
1 30
    -0.144968806370000    -0.000000000000000    -0.000000000000000
    -0.000000000000000    -0.052656944660000    -0.185610306960000
     0.000000000000000     0.185610306960000    -0.508575287060000
1 31
    -0.075734880060000     0.039972247670000     0.160743333110000
     0.039972247670000    -0.121890870970000     0.092805153480000
    -0.160743333110000    -0.092805153480000    -0.508575287060000
1 32
    -0.075734880060000    -0.039972247670000    -0.160743333110000
    -0.039972247670000    -0.121890870970000     0.092805153480000
     0.160743333110000    -0.092805153480000    -0.508575287060000
2 1
    -6.342357503250000     0.000000000000000    -0.000000000000000
     0.000000000000000     2.207426741360000    -1.324271363680000
    -0.000000000000000    -1.324271363680000     1.264106823360000
2 2
    44.529361478589998     0.000000000000000     0.000000000000000
     0.000000000000000    44.529351389349998    -0.000000000000000
     0.000000000000000    -0.000000000000000    42.855497468469999
2 3
     0.069981130620000    -3.702165063309999    -1.146852798940000
    -3.702165063309999    -4.204910331080000     0.662135681840000
    -1.146852798940000     0.662135681840000     1.264106823360000
2 4
     0.069981130620000     3.702165063309999     1.146852798940000
     3.702165063309999    -4.204910331080000     0.662135681840000
     1.146852798940000     0.662135681840000     1.264106823360000
2 5
     0.127395272050000    -0.000000000000000    -0.000000000000000
    -0.000000000000000    -0.072956495540000    -0.082043898030000
    -0.000000000000000    -0.082043898030000    -0.067519596280000
2 6
    -0.108851369040000    -0.000000000000000     0.000000000000000
    -0.000000000000000    -0.108851369040000     0.000000000000000
     0.000000000000000     0.000000000000000     0.015004381420000
2 7
    -0.022868583670000     0.086754852450000    -0.071052151490000
     0.086754852450000     0.077307360180000     0.041022009070000
    -0.071052151490000     0.041022009070000    -0.067519596280000
2 8
    -0.022868583670000    -0.086754852450000     0.071052151490000
    -0.086754852450000     0.077307360180000     0.041022009070000
     0.071052151490000     0.041022009070000    -0.067519596280000
2 9
     0.112922977930000     0.108212984390000    -2.327040927280000
     0.108212984390000    -0.012030698040000    -1.343517549860000
    -0.998890250820000    -0.576709486210000    -1.799265816500000
2 10
     0.112922977930000    -0.108212984390000     2.327040927280000
    -0.108212984390000    -0.012030698040000    -1.343517549860000
     0.998890250820000    -0.576709486210000    -1.799265816500000
2 11
     0.009583697010000     0.000000000000000     0.000000000000000
     0.000000000000000     0.009583697010000     0.000000000000000
    -0.000000000000000    -0.000000000000000    -0.147006712740000
2 12
    -0.074507475970000     0.000000000000000     0.000000000000000
     0.000000000000000     0.175399755860000     2.687035219830000
     0.000000000000000     1.153419092530000    -1.799265816500000
2 13
     0.112922977930000     0.108212984390000     0.998890250820000
     0.108212984390000    -0.012030698040000     0.576709486210000
     2.327040927280000     1.343517549860000    -1.799265816500000
2 14
     0.112922977930000    -0.108212984390000    -0.998890250820000
    -0.108212984390000    -0.012030698040000     0.576709486210000
    -2.327040927280000     1.343517549860000    -1.799265816500000
2 15
     0.009583697010000    -0.000000000000000     0.000000000000000
    -0.000000000000000     0.009583697010000    -0.000000000000000
    -0.000000000000000     0.000000000000000    -0.147006712740000
2 16
    -0.074507475970000     0.000000000000000    -0.000000000000000
     0.000000000000000     0.175399755860000    -1.153419092530000
    -0.000000000000000    -2.687035219830000    -1.799265816500000
2 17
    -0.332431449750000    -0.244973473360000     0.015404227610000
    -0.244973473360000    -0.049560388750000     0.008893665060000
     0.015404227610000     0.008893665060000     0.170259648410000
2 18
    -0.332431449750000     0.244973473360000    -0.015404227610000
     0.244973473360000    -0.049560388750000     0.008893665060000
    -0.015404227610000     0.008893665060000     0.170259648410000
2 19
    -0.011564431020000    -0.000000000000000     0.000000000000000
    -0.000000000000000    -0.011564431020000    -0.000000000000000
     0.000000000000000    -0.000000000000000    -0.108240849910000
2 20
     0.091875141750000    -0.000000000000000    -0.000000000000000
    -0.000000000000000    -0.473866860140000    -0.017787330120000
    -0.000000000000000    -0.017787330120000     0.170259648410000
2 21
   -12.544746259319998    -3.021744315510000     2.088395088940000
    -3.021744315510000    -9.055534064030001     1.205735285120000
     2.088395088940000     1.205735285120000    -7.699625846460000
2 22
   -12.544746259319998     3.021744315510000    -2.088395088940000
     3.021744315510000    -9.055534064030001     1.205735285120000
    -2.088395088940000     1.205735285120000    -7.699625846460000
2 23
     0.636678967890000     0.000000000000000    -0.000000000000000
     0.000000000000000     0.636678847780000    -0.000000000000000
    -0.000000000000000    -0.000000000000000     0.011714688630000
2 24
    -7.310930909080000    -0.000000000000000    -0.000000000000000
    -0.000000000000000   -14.289348213170001    -2.411470570240000
    -0.000000000000000    -2.411470570240000    -7.699625846460000
2 25
     0.281087547610000     0.000000000000000     0.000000000000000
     0.000000000000000     0.123093532400000     0.041128666750000
    -0.000000000000000    -0.041128666750000     0.078772221740000
2 26
    -6.822302289720000    -0.000000000000000     0.000000000000000
    -0.000000000000000    -6.822300728290000    -0.000000000000000
     0.000000000000000     0.000000000000000   -11.331878962509998
2 27
     0.162592066230000     0.068413454900000     0.035618500390000
     0.068413454900000     0.241589013780000    -0.020564393430000
    -0.035618500390000     0.020564393430000     0.078772221740000
2 28
     0.162592066230000    -0.068413454900000    -0.035618500390000
    -0.068413454900000     0.241589013780000    -0.020564393430000
     0.035618500390000     0.020564393430000     0.078772221740000
2 29
    -0.144968806370000    -0.000000000000000    -0.000000000000000
    -0.000000000000000    -0.052656944660000    -0.185610306960000
     0.000000000000000     0.185610306960000    -0.508575287060000
2 30
     0.239148738910000     0.000000000000000     0.000000000000000
     0.000000000000000     0.239148738910000     0.000000000000000
     0.000000000000000     0.000000000000000    -0.064742653080000
2 31
    -0.075734880060000    -0.039972247670000    -0.160743333110000
    -0.039972247670000    -0.121890870970000     0.092805153480000
     0.160743333110000    -0.092805153480000    -0.508575287060000
2 32
    -0.075734880060000     0.039972247670000     0.160743333110000
     0.039972247670000    -0.121890870970000     0.092805153480000
    -0.160743333110000    -0.092805153480000    -0.508575287060000
3 1
     0.069981130620000     3.702165063309999     1.146852798940000
     3.702165063309999    -4.204910331080000     0.662135681840000
     1.146852798940000     0.662135681840000     1.264106823360000
3 2
     0.069981130620000    -3.702165063309999    -1.146852798940000
    -3.702165063309999    -4.204910331080000     0.662135681840000
    -1.146852798940000     0.662135681840000     1.264106823360000
3 3
    44.529361478589998     0.000000000000000     0.000000000000000
     0.000000000000000    44.529351389349998    -0.000000000000000
     0.000000000000000    -0.000000000000000    42.855497468469999
3 4
    -6.342357503250000     0.000000000000000    -0.000000000000000
     0.000000000000000     2.207426741360000    -1.324271363680000
    -0.000000000000000    -1.324271363680000     1.264106823360000
3 5
    -0.022868583670000    -0.086754852450000     0.071052151490000
    -0.086754852450000     0.077307360180000     0.041022009070000
     0.071052151490000     0.041022009070000    -0.067519596280000
3 6
    -0.022868583670000     0.086754852450000    -0.071052151490000
     0.086754852450000     0.077307360180000     0.041022009070000
    -0.071052151490000     0.041022009070000    -0.067519596280000
3 7
    -0.108851369040000    -0.000000000000000     0.000000000000000
    -0.000000000000000    -0.108851369040000     0.000000000000000
     0.000000000000000     0.000000000000000     0.015004381420000
3 8
     0.127395272050000    -0.000000000000000    -0.000000000000000
    -0.000000000000000    -0.072956495540000    -0.082043898030000
    -0.000000000000000    -0.082043898030000    -0.067519596280000
3 9
    -0.074507475970000     0.000000000000000     0.000000000000000
     0.000000000000000     0.175399755860000     2.687035219830000
     0.000000000000000     1.153419092530000    -1.799265816500000
3 10
     0.009583697010000     0.000000000000000     0.000000000000000
     0.000000000000000     0.009583697010000     0.000000000000000
    -0.000000000000000    -0.000000000000000    -0.147006712740000
3 11
     0.112922977930000    -0.108212984390000     2.327040927280000
    -0.108212984390000    -0.012030698040000    -1.343517549860000
     0.998890250820000    -0.576709486210000    -1.799265816500000
3 12
     0.112922977930000     0.108212984390000    -2.327040927280000
     0.108212984390000    -0.012030698040000    -1.343517549860000
    -0.998890250820000    -0.576709486210000    -1.799265816500000
3 13
    -0.074507475970000     0.000000000000000    -0.000000000000000
     0.000000000000000     0.175399755860000    -1.153419092530000
    -0.000000000000000    -2.687035219830000    -1.799265816500000
3 14
     0.009583697010000    -0.000000000000000     0.000000000000000
    -0.000000000000000     0.009583697010000    -0.000000000000000
    -0.000000000000000     0.000000000000000    -0.147006712740000
3 15
     0.112922977930000    -0.108212984390000    -0.998890250820000
    -0.108212984390000    -0.012030698040000     0.576709486210000
    -2.327040927280000     1.343517549860000    -1.799265816500000
3 16
     0.112922977930000     0.108212984390000     0.998890250820000
     0.108212984390000    -0.012030698040000     0.576709486210000
     2.327040927280000     1.343517549860000    -1.799265816500000
3 17
     0.091875141750000    -0.000000000000000    -0.000000000000000
    -0.000000000000000    -0.473866860140000    -0.017787330120000
    -0.000000000000000    -0.017787330120000     0.170259648410000
3 18
    -0.011564431020000    -0.000000000000000     0.000000000000000
    -0.000000000000000    -0.011564431020000    -0.000000000000000
     0.000000000000000    -0.000000000000000    -0.108240849910000
3 19
    -0.332431449750000     0.244973473360000    -0.015404227610000
     0.244973473360000    -0.049560388750000     0.008893665060000
    -0.015404227610000     0.008893665060000     0.170259648410000
3 20
    -0.332431449750000    -0.244973473360000     0.015404227610000
    -0.244973473360000    -0.049560388750000     0.008893665060000
     0.015404227610000     0.008893665060000     0.170259648410000
3 21
    -7.310930909080000    -0.000000000000000    -0.000000000000000
    -0.000000000000000   -14.289348213170001    -2.411470570240000
    -0.000000000000000    -2.411470570240000    -7.699625846460000
3 22
     0.636678967890000     0.000000000000000    -0.000000000000000
     0.000000000000000     0.636678847780000    -0.000000000000000
    -0.000000000000000    -0.000000000000000     0.011714688630000
3 23
   -12.544746259319998     3.021744315510000    -2.088395088940000
     3.021744315510000    -9.055534064030001     1.205735285120000
    -2.088395088940000     1.205735285120000    -7.699625846460000
3 24
   -12.544746259319998    -3.021744315510000     2.088395088940000
    -3.021744315510000    -9.055534064030001     1.205735285120000
     2.088395088940000     1.205735285120000    -7.699625846460000
3 25
     0.162592066230000    -0.068413454900000    -0.035618500390000
    -0.068413454900000     0.241589013780000    -0.020564393430000
     0.035618500390000     0.020564393430000     0.078772221740000
3 26
     0.162592066230000     0.068413454900000     0.035618500390000
     0.068413454900000     0.241589013780000    -0.020564393430000
    -0.035618500390000     0.020564393430000     0.078772221740000
3 27
    -6.822302289720000    -0.000000000000000     0.000000000000000
    -0.000000000000000    -6.822300728290000    -0.000000000000000
     0.000000000000000     0.000000000000000   -11.331878962509998
3 28
     0.281087547610000     0.000000000000000     0.000000000000000
     0.000000000000000     0.123093532400000     0.041128666750000
    -0.000000000000000    -0.041128666750000     0.078772221740000
3 29
    -0.075734880060000     0.039972247670000     0.160743333110000
     0.039972247670000    -0.121890870970000     0.092805153480000
    -0.160743333110000    -0.092805153480000    -0.508575287060000
3 30
    -0.075734880060000    -0.039972247670000    -0.160743333110000
    -0.039972247670000    -0.121890870970000     0.092805153480000
     0.160743333110000    -0.092805153480000    -0.508575287060000
3 31
     0.239148738910000     0.000000000000000     0.000000000000000
     0.000000000000000     0.239148738910000     0.000000000000000
     0.000000000000000     0.000000000000000    -0.064742653080000
3 32
    -0.144968806370000    -0.000000000000000    -0.000000000000000
    -0.000000000000000    -0.052656944660000    -0.185610306960000
     0.000000000000000     0.185610306960000    -0.508575287060000
4 1
     0.069981130620000    -3.702165063309999    -1.146852798940000
    -3.702165063309999    -4.204910331080000     0.662135681840000
    -1.146852798940000     0.662135681840000     1.264106823360000
4 2
     0.069981130620000     3.702165063309999     1.146852798940000
     3.702165063309999    -4.204910331080000     0.662135681840000
     1.146852798940000     0.662135681840000     1.264106823360000
4 3
    -6.342357503250000     0.000000000000000    -0.000000000000000
     0.000000000000000     2.207426741360000    -1.324271363680000
    -0.000000000000000    -1.324271363680000     1.264106823360000
4 4
    44.529361478589998     0.000000000000000     0.000000000000000
     0.000000000000000    44.529351389349998    -0.000000000000000
     0.000000000000000    -0.000000000000000    42.855497468469999
4 5
    -0.022868583670000     0.086754852450000    -0.071052151490000
     0.086754852450000     0.077307360180000     0.041022009070000
    -0.071052151490000     0.041022009070000    -0.067519596280000
4 6
    -0.022868583670000    -0.086754852450000     0.071052151490000
    -0.086754852450000     0.077307360180000     0.041022009070000
     0.071052151490000     0.041022009070000    -0.067519596280000
4 7
     0.127395272050000    -0.000000000000000    -0.000000000000000
    -0.000000000000000    -0.072956495540000    -0.082043898030000
    -0.000000000000000    -0.082043898030000    -0.067519596280000
4 8
    -0.108851369040000    -0.000000000000000     0.000000000000000
    -0.000000000000000    -0.108851369040000     0.000000000000000
     0.000000000000000     0.000000000000000     0.015004381420000
4 9
     0.009583697010000     0.000000000000000     0.000000000000000
     0.000000000000000     0.009583697010000     0.000000000000000
    -0.000000000000000    -0.000000000000000    -0.147006712740000
4 10
    -0.074507475970000     0.000000000000000     0.000000000000000
     0.000000000000000     0.175399755860000     2.687035219830000
     0.000000000000000     1.153419092530000    -1.799265816500000
4 11
     0.112922977930000     0.108212984390000    -2.327040927280000
     0.108212984390000    -0.012030698040000    -1.343517549860000
    -0.998890250820000    -0.576709486210000    -1.799265816500000
4 12
     0.112922977930000    -0.108212984390000     2.327040927280000
    -0.108212984390000    -0.012030698040000    -1.343517549860000
     0.998890250820000    -0.576709486210000    -1.799265816500000
4 13
     0.009583697010000    -0.000000000000000     0.000000000000000
    -0.000000000000000     0.009583697010000    -0.000000000000000
    -0.000000000000000     0.000000000000000    -0.147006712740000
4 14
    -0.074507475970000     0.000000000000000    -0.000000000000000
     0.000000000000000     0.175399755860000    -1.153419092530000
    -0.000000000000000    -2.687035219830000    -1.799265816500000
4 15
     0.112922977930000     0.108212984390000     0.998890250820000
     0.108212984390000    -0.012030698040000     0.576709486210000
     2.327040927280000     1.343517549860000    -1.799265816500000
4 16
     0.112922977930000    -0.108212984390000    -0.998890250820000
    -0.108212984390000    -0.012030698040000     0.576709486210000
    -2.327040927280000     1.343517549860000    -1.799265816500000
4 17
    -0.011564431020000    -0.000000000000000     0.000000000000000
    -0.000000000000000    -0.011564431020000    -0.000000000000000
     0.000000000000000    -0.000000000000000    -0.108240849910000
4 18
     0.091875141750000    -0.000000000000000    -0.000000000000000
    -0.000000000000000    -0.473866860140000    -0.017787330120000
    -0.000000000000000    -0.017787330120000     0.170259648410000
4 19
    -0.332431449750000    -0.244973473360000     0.015404227610000
    -0.244973473360000    -0.049560388750000     0.008893665060000
     0.015404227610000     0.008893665060000     0.170259648410000
4 20
    -0.332431449750000     0.244973473360000    -0.015404227610000
     0.244973473360000    -0.049560388750000     0.008893665060000
    -0.015404227610000     0.008893665060000     0.170259648410000
4 21
     0.636678967890000     0.000000000000000    -0.000000000000000
     0.000000000000000     0.636678847780000    -0.000000000000000
    -0.000000000000000    -0.000000000000000     0.011714688630000
4 22
    -7.310930909080000    -0.000000000000000    -0.000000000000000
    -0.000000000000000   -14.289348213170001    -2.411470570240000
    -0.000000000000000    -2.411470570240000    -7.699625846460000
4 23
   -12.544746259319998    -3.021744315510000     2.088395088940000
    -3.021744315510000    -9.055534064030001     1.205735285120000
     2.088395088940000     1.205735285120000    -7.699625846460000
4 24
   -12.544746259319998     3.021744315510000    -2.088395088940000
     3.021744315510000    -9.055534064030001     1.205735285120000
    -2.088395088940000     1.205735285120000    -7.699625846460000
4 25
     0.162592066230000     0.068413454900000     0.035618500390000
     0.068413454900000     0.241589013780000    -0.020564393430000
    -0.035618500390000     0.020564393430000     0.078772221740000
4 26
     0.162592066230000    -0.068413454900000    -0.035618500390000
    -0.068413454900000     0.241589013780000    -0.020564393430000
     0.035618500390000     0.020564393430000     0.078772221740000
4 27
     0.281087547610000     0.000000000000000     0.000000000000000
     0.000000000000000     0.123093532400000     0.041128666750000
    -0.000000000000000    -0.041128666750000     0.078772221740000
4 28
    -6.822302289720000    -0.000000000000000     0.000000000000000
    -0.000000000000000    -6.822300728290000    -0.000000000000000
     0.000000000000000     0.000000000000000   -11.331878962509998
4 29
    -0.075734880060000    -0.039972247670000    -0.160743333110000
    -0.039972247670000    -0.121890870970000     0.092805153480000
     0.160743333110000    -0.092805153480000    -0.508575287060000
4 30
    -0.075734880060000     0.039972247670000     0.160743333110000
     0.039972247670000    -0.121890870970000     0.092805153480000
    -0.160743333110000    -0.092805153480000    -0.508575287060000
4 31
    -0.144968806370000    -0.000000000000000    -0.000000000000000
    -0.000000000000000    -0.052656944660000    -0.185610306960000
     0.000000000000000     0.185610306960000    -0.508575287060000
4 32
     0.239148738910000     0.000000000000000     0.000000000000000
     0.000000000000000     0.239148738910000     0.000000000000000
     0.000000000000000     0.000000000000000    -0.064742653080000
5 1
    -0.108851369040000    -0.000000000000000     0.000000000000000
    -0.000000000000000    -0.108851369040000     0.000000000000000
     0.000000000000000     0.000000000000000     0.015004381420000
5 2
     0.127395272050000    -0.000000000000000    -0.000000000000000
    -0.000000000000000    -0.072956495540000    -0.082043898030000
    -0.000000000000000    -0.082043898030000    -0.067519596280000
5 3
    -0.022868583670000    -0.086754852450000     0.071052151490000
    -0.086754852450000     0.077307360180000     0.041022009070000
     0.071052151490000     0.041022009070000    -0.067519596280000
5 4
    -0.022868583670000     0.086754852450000    -0.071052151490000
     0.086754852450000     0.077307360180000     0.041022009070000
    -0.071052151490000     0.041022009070000    -0.067519596280000
5 5
    44.529361478589998     0.000000000000000     0.000000000000000
     0.000000000000000    44.529351389349998    -0.000000000000000
     0.000000000000000    -0.000000000000000    42.855497468469999
5 6
    -6.342357503250000     0.000000000000000    -0.000000000000000
     0.000000000000000     2.207426741360000    -1.324271363680000
    -0.000000000000000    -1.324271363680000     1.264106823360000
5 7
     0.069981130620000     3.702165063309999     1.146852798940000
     3.702165063309999    -4.204910331080000     0.662135681840000
     1.146852798940000     0.662135681840000     1.264106823360000
5 8
     0.069981130620000    -3.702165063309999    -1.146852798940000
    -3.702165063309999    -4.204910331080000     0.662135681840000
    -1.146852798940000     0.662135681840000     1.264106823360000
5 9
     0.112922977930000    -0.108212984390000    -0.998890250820000
    -0.108212984390000    -0.012030698040000     0.576709486210000
    -2.327040927280000     1.343517549860000    -1.799265816500000
5 10
     0.112922977930000     0.108212984390000     0.998890250820000
     0.108212984390000    -0.012030698040000     0.576709486210000
     2.327040927280000     1.343517549860000    -1.799265816500000
5 11
    -0.074507475970000     0.000000000000000    -0.000000000000000
     0.000000000000000     0.175399755860000    -1.153419092530000
    -0.000000000000000    -2.687035219830000    -1.799265816500000
5 12
     0.009583697010000    -0.000000000000000     0.000000000000000
    -0.000000000000000     0.009583697010000    -0.000000000000000
    -0.000000000000000     0.000000000000000    -0.147006712740000
5 13
     0.112922977930000    -0.108212984390000     2.327040927280000
    -0.108212984390000    -0.012030698040000    -1.343517549860000
     0.998890250820000    -0.576709486210000    -1.799265816500000
5 14
     0.112922977930000     0.108212984390000    -2.327040927280000
     0.108212984390000    -0.012030698040000    -1.343517549860000
    -0.998890250820000    -0.576709486210000    -1.799265816500000
5 15
    -0.074507475970000     0.000000000000000     0.000000000000000
     0.000000000000000     0.175399755860000     2.687035219830000
     0.000000000000000     1.153419092530000    -1.799265816500000
5 16
     0.009583697010000     0.000000000000000     0.000000000000000
     0.000000000000000     0.009583697010000     0.000000000000000
    -0.000000000000000    -0.000000000000000    -0.147006712740000
5 17
   -12.544746259319998     3.021744315510000    -2.088395088940000
     3.021744315510000    -9.055534064030001     1.205735285120000
    -2.088395088940000     1.205735285120000    -7.699625846460000
5 18
   -12.544746259319998    -3.021744315510000     2.088395088940000
    -3.021744315510000    -9.055534064030001     1.205735285120000