Automatically generated mesh
       4
Reciprocal lattice
    0.00000000000000    0.00000000000000    0.00000000000000             1
    0.50000000000000    0.00000000000000    0.00000000000000             3
    0.00000000000000    0.00000000000000    0.50000000000000             1
    0.50000000000000    0.00000000000000    0.50000000000000             3
Tetrahedra
        10    0.02083333333333
         4         2         2         2         4
         8         1         2         2         4
         4         1         2         3         4
         4         2         2         4         4
         4         2         4         4         4
         8         2         3         4         4
         4         1         2         4         4
         4         1         3         4         4
         4         1         2         2         3
         4         2         2         3         4
