       N       E                     dE             d eps       ncg     rms          rms(c)
DAV:   1    -0.100124778865E+03   -0.10012E+03   -0.59969E+04  1792   0.924E+02
DAV:   2    -0.669352945161E+03   -0.56923E+03   -0.54129E+03  2240   0.237E+02
DAV:   3    -0.695256145810E+03   -0.25903E+02   -0.25614E+02  2496   0.453E+01
DAV:   4    -0.695772536577E+03   -0.51639E+00   -0.51449E+00  2416   0.645E+00
DAV:   5    -0.695784696089E+03   -0.12160E-01   -0.12149E-01  2432   0.979E-01    0.914E+01
RMM:   6    -0.397727581950E+03    0.29806E+03   -0.17765E+02  1792   0.322E+01    0.488E+01
RMM:   7    -0.288347451909E+03    0.10938E+03   -0.26582E+02  1792   0.383E+01    0.624E+00
RMM:   8    -0.288734046243E+03   -0.38659E+00   -0.16720E+00  1792   0.411E+00    0.218E+00
RMM:   9    -0.288967545824E+03   -0.23350E+00   -0.36373E-01  1792   0.220E+00    0.678E-01
RMM:  10    -0.288987812062E+03   -0.20266E-01   -0.60785E-02  1792   0.790E-01    0.171E-01
RMM:  11    -0.288988597565E+03   -0.78550E-03   -0.17767E-03  1792   0.134E-01    0.139E-01
RMM:  12    -0.288988433603E+03    0.16396E-03   -0.36317E-04  1792   0.601E-02    0.377E-02
RMM:  13    -0.288988405271E+03    0.28332E-04   -0.11880E-04  1792   0.304E-02    0.314E-03
RMM:  14    -0.288988406113E+03   -0.84171E-06   -0.27194E-06  1423   0.522E-03
   1 F= -.20334170E+03 E0= -.20334170E+03  d E =0.000000E+00  mag=    -0.0000
 Linear response reoptimize wavefunctions
DAV:   1    -0.288988407278E+03   -0.85647E+02   -0.64058E-07  1904   0.263E-03
DAV:   2    -0.288988407279E+03   -0.13452E-08   -0.17175E-08  1664   0.327E-04
DAV:   3    -0.288988407279E+03   -0.11653E-09   -0.44260E-10  1536   0.664E-05
 Linear response DOF=            2
 Linear response progress:
  Degree of freedom:   1/  2
       N       E                     dE             d eps       ncg     rms          rms(c)
RMM:   1    -0.144030009277E+00   -0.14403E+00    0.21740E-02 10067   0.861E-01
RMM:   2    -0.124445034454E+00    0.19585E-01   -0.58443E-03  5893   0.196E-01    0.182E-01
RMM:   3    -0.124396418307E+00    0.48616E-04   -0.75019E-04  6090   0.543E-02    0.931E-02
RMM:   4    -0.124780656334E+00   -0.38424E-03   -0.18650E-04  5903   0.296E-02    0.288E-02
RMM:   5    -0.124918059942E+00   -0.13740E-03   -0.13929E-05  6178   0.901E-03    0.703E-03
RMM:   6    -0.124888911964E+00    0.29148E-04   -0.20677E-06  6152   0.277E-03    0.913E-04
RMM:   7    -0.124884029267E+00    0.48827E-05    0.10952E-07  6579   0.427E-04    0.327E-04
RMM:   8    -0.124883223066E+00    0.80620E-06    0.67166E-08  6940   0.180E-04    0.131E-04
 Linear response progress:
  Degree of freedom:   2/  2
       N       E                     dE             d eps       ncg     rms          rms(c)
RMM:   1    -0.144092856273E+00   -0.14409E+00    0.26655E-02  5086   0.830E-01
RMM:   2    -0.125577145883E+00    0.18516E-01   -0.55104E-03  2884   0.186E-01    0.181E-01
RMM:   3    -0.125517651885E+00    0.59494E-04   -0.67091E-04  2937   0.536E-02    0.922E-02
RMM:   4    -0.125875725502E+00   -0.35807E-03   -0.18627E-04  2827   0.301E-02    0.277E-02
RMM:   5    -0.125986930163E+00   -0.11120E-03   -0.12499E-05  3020   0.878E-03    0.718E-03
RMM:   6    -0.125957879057E+00    0.29051E-04    0.83746E-08  3025   0.285E-03    0.146E-03
RMM:   7    -0.125950569240E+00    0.73098E-05    0.25318E-06  3143   0.643E-04    0.404E-04
RMM:   8    -0.125948464178E+00    0.21051E-05    0.36923E-06  3292   0.241E-04    0.164E-04
RMM:   9    -0.125948213153E+00    0.25103E-06    0.50740E-06  3470   0.120E-04    0.707E-05
 Linear response finished
