mesh: [    48,    48,    48 ]
nqpoint: 2600   
reciprocal_lattice:
- [   0.28474720,   0.00000000,   0.00000000 ] # a*
- [   0.00000000,   0.28474720,   0.00000000 ] # b*
- [   0.00000000,   0.00000000,   0.28474720 ] # c*
natom:   8      
lattice:
- [     3.511887000000000,     0.000000000000000,     0.000000000000000 ] # a
- [     0.000000000000000,     3.511887000000000,     0.000000000000000 ] # b
- [     0.000000000000000,     0.000000000000000,     3.511887000000000 ] # c
points:
- symbol: C  # 1
  coordinates: [  0.756696000000000,  0.756696000000000,  0.756696000000000 ]
  mass: 12.010700
- symbol: C  # 2
  coordinates: [  0.006695000000000,  0.506696000000000,  0.006695000000000 ]
  mass: 12.010700
- symbol: C  # 3
  coordinates: [  0.506696000000000,  0.506696000000000,  0.506696000000000 ]
  mass: 12.010700
- symbol: C  # 4
  coordinates: [  0.006695000000000,  0.006695000000000,  0.506696000000000 ]
  mass: 12.010700
- symbol: C  # 5
  coordinates: [  0.506696000000000,  0.006695000000000,  0.006695000000000 ]
  mass: 12.010700
- symbol: C  # 6
  coordinates: [  0.756696000000000,  0.256696000000000,  0.256696000000000 ]
  mass: 12.010700
- symbol: C  # 7
  coordinates: [  0.256696000000000,  0.256696000000000,  0.756696000000000 ]
  mass: 12.010700
- symbol: C  # 8
  coordinates: [  0.256696000000000,  0.756696000000000,  0.256696000000000 ]
  mass: 12.010700

phonon:
- q-position: [    0.0104167,    0.0104167,    0.0104167 ]
  distance_from_gamma:  0.005137465
  weight: 8    
  band:
  - # 1
    frequency:     0.6087436303
  - # 2
    frequency:     0.6087436303
  - # 3
    frequency:     0.9745465828
  - # 4
    frequency:    23.6167600281
  - # 5
    frequency:    23.6167600281
  - # 6
    frequency:    23.6167600281
  - # 7
    frequency:    23.6317931657
  - # 8
    frequency:    23.6317931657
  - # 9
    frequency:    23.6317931657
  - # 10
    frequency:    34.3594753290
  - # 11
    frequency:    34.3594753290
  - # 12
    frequency:    34.3594753290
  - # 13
    frequency:    34.3678430285
  - # 14
    frequency:    34.3678430285
  - # 15
    frequency:    34.3678430285
  - # 16
    frequency:    37.2678668819
  - # 17
    frequency:    37.2678668819
  - # 18
    frequency:    37.2678668819
  - # 19
    frequency:    37.6187623696
  - # 20
    frequency:    37.6187623696
  - # 21
    frequency:    37.6187623696
  - # 22
    frequency:    40.8982802515
  - # 23
    frequency:    40.8982802515
  - # 24
    frequency:    40.9017757538

- q-position: [    0.0312500,    0.0104167,    0.0104167 ]
  distance_from_gamma:  0.009837496
  weight: 24   
  band:
  - # 1
    frequency:     1.1868381977
  - # 2
    frequency:     1.2240573021
  - # 3
    frequency:     1.8134204360
  - # 4
    frequency:    23.5882925288
  - # 5
    frequency:    23.6033290360
  - # 6
    frequency:    23.6281448464
  - # 7
    frequency:    23.6281448464
  - # 8
    frequency:    23.6731632772
  - # 9
    frequency:    23.6731632772
  - # 10
    frequency:    34.3373573586
  - # 11
    frequency:    34.3373573586
  - # 12
    frequency:    34.3624456196
  - # 13
    frequency:    34.3624456196
  - # 14
    frequency:    34.3769345259
  - # 15
    frequency:    34.3858110849
  - # 16
    frequency:    36.8990438604
  - # 17
    frequency:    37.2621290244
  - # 18
    frequency:    37.2621290244
  - # 19
    frequency:    37.6116470613
  - # 20
    frequency:    37.6116470613
  - # 21
    frequency:    37.9511678335
  - # 22
    frequency:    40.8866134916
  - # 23
    frequency:    40.8874134512
  - # 24
    frequency:    40.9048937260

- q-position: [    0.0520833,    0.0104167,    0.0104167 ]
  distance_from_gamma:  0.015412394
  weight: 24   
  band:
  - # 1
    frequency:     1.9063617813
  - # 2
    frequency:     1.9363471716
  - # 3
    frequency:     2.7935417388
  - # 4
    frequency:    23.5314840360
  - # 5
    frequency:    23.5465263302
  - # 6
    frequency:    23.6657993708
  - # 7
    frequency:    23.6657993708
  - # 8
    frequency:    23.7405632852
  - # 9
    frequency:    23.7405632852
  - # 10
    frequency:    34.3013734868
  - # 11
    frequency:    34.3013734868
  - # 12
    frequency:    34.3431936992
  - # 13
    frequency:    34.3431936992
  - # 14
    frequency:    34.4115111722
  - # 15
    frequency:    34.4215626236
  - # 16
    frequency:    36.5118866356
  - # 17
    frequency:    37.2508539818
  - # 18
    frequency:    37.2508539818
  - # 19
    frequency:    37.5976257622
  - # 20
    frequency:    37.5976257622
  - # 21
    frequency:    38.2656800391
  - # 22
    frequency:    40.8633092530
  - # 23
    frequency:    40.8641972841
  - # 24
    frequency:    40.9125821477

- q-position: [    0.0729167,    0.0104167,    0.0104167 ]
  distance_from_gamma:  0.021182310
  weight: 24   
  band:
  - # 1
    frequency:     2.6448098893
  - # 2
    frequency:     2.6674359704
  - # 3
    frequency:     3.8109504743
  - # 4
    frequency:    23.4465807473
  - # 5
    frequency:    23.4616294076
  - # 6
    frequency:    23.7293481561
  - # 7
    frequency:    23.7293481561
  - # 8
    frequency:    23.8334642302
  - # 9
    frequency:    23.8334642302
  - # 10
    frequency:    34.2513358568
  - # 11
    frequency:    34.2513358568
  - # 12
    frequency:    34.3098853362
  - # 13
    frequency:    34.3098853362
  - # 14
    frequency:    34.4623787750
  - # 15
    frequency:    34.4747362268
  - # 16
    frequency:    36.1067577561
  - # 17
    frequency:    37.2344322156
  - # 18
    frequency:    37.2344322156
  - # 19
    frequency:    37.5771087065
  - # 20
    frequency:    37.5771087065
  - # 21
    frequency:    38.5624675141
  - # 22
    frequency:    40.8284261841
  - # 23
    frequency:    40.8293375159
  - # 24
    frequency:    40.9240756841

- q-position: [    0.0937500,    0.0104167,    0.0104167 ]
  distance_from_gamma:  0.027022609
  weight: 24   
  band:
  - # 1
    frequency:     3.3860806467
  - # 2
    frequency:     3.4033201013
  - # 3
    frequency:     4.8409757402
  - # 4
    frequency:    23.3339358352
  - # 5
    frequency:    23.3489888419
  - # 6
    frequency:    23.8181924219
  - # 7
    frequency:    23.8181924219
  - # 8
    frequency:    23.9511233381
  - # 9
    frequency:    23.9511233381
  - # 10
    frequency:    34.1869945031
  - # 11
    frequency:    34.1869945031
  - # 12
    frequency:    34.2622363154
  - # 13
    frequency:    34.2622363154
  - # 14
    frequency:    34.5275861200
  - # 15
    frequency:    34.5448081607
  - # 16
    frequency:    35.6849339197
  - # 17
    frequency:    37.2134226311
  - # 18
    frequency:    37.2134226311
  - # 19
    frequency:    37.5506902060
  - # 20
    frequency:    37.5506902060
  - # 21
    frequency:    38.8417804365
  - # 22
    frequency:    40.7820524721
  - # 23
    frequency:    40.7829724132
  - # 24
    frequency:    40.9391482299

- q-position: [    0.1145833,    0.0104167,    0.0104167 ]
  distance_from_gamma:  0.032895826
  weight: 24   
  band:
  - # 1
    frequency:     4.1261116175
  - # 2
    frequency:     4.1393512692
  - # 3
    frequency:     5.8745671781
  - # 4
    frequency:    23.1939924481
  - # 5
    frequency:    23.2090445890
  - # 6
    frequency:    23.9315166554
  - # 7
    frequency:    23.9315166554
  - # 8
    frequency:    24.0925938988
  - # 9
    frequency:    24.0925938988
  - # 10
    frequency:    34.1080723162
  - # 11
    frequency:    34.1080723162
  - # 12
    frequency:    34.1999049255
  - # 13
    frequency:    34.1999049255
  - # 14
    frequency:    34.6000502702
  - # 15
    frequency:    34.6311120342
  - # 16
    frequency:    35.2526859438
  - # 17
    frequency:    37.1885217613
  - # 18
    frequency:    37.1885217613
  - # 19
    frequency:    37.5191234655
  - # 20
    frequency:    37.5191234655
  - # 21
    frequency:    39.1038978084
  - # 22
    frequency:    40.7243060941
  - # 23
    frequency:    40.7252293615
  - # 24
    frequency:    40.9575580779

- q-position: [    0.1354167,    0.0104167,    0.0104167 ]
  distance_from_gamma:  0.038787009
  weight: 24   
  band:
  - # 1
    frequency:     4.8631163045
  - # 2
    frequency:     4.8732524656
  - # 3
    frequency:     6.9073452520
  - # 4
    frequency:    23.0272644241
  - # 5
    frequency:    23.0423068907
  - # 6
    frequency:    24.0682968320
  - # 7
    frequency:    24.0682968320
  - # 8
    frequency:    24.2567364180
  - # 9
    frequency:    24.2567364180
  - # 10
    frequency:    34.0143067000
  - # 11
    frequency:    34.0143067000
  - # 12
    frequency:    34.1225277957
  - # 13
    frequency:    34.1225277957
  - # 14
    frequency:    34.6057375641
  - # 15
    frequency:    34.7328615325
  - # 16
    frequency:    34.8831276170
  - # 17
    frequency:    37.1605252477
  - # 18
    frequency:    37.1605252477
  - # 19
    frequency:    37.4832875774
  - # 20
    frequency:    37.4832875774
  - # 21
    frequency:    39.3491209961
  - # 22
    frequency:    40.6553351421
  - # 23
    frequency:    40.6562592492
  - # 24
    frequency:    40.9790158633

- q-position: [    0.1562500,    0.0104167,    0.0104167 ]
  distance_from_gamma:  0.044689054
  weight: 24   
  band:
  - # 1
    frequency:     5.5959419606
  - # 2
    frequency:     5.6035684300
  - # 3
    frequency:     7.9366961654
  - # 4
    frequency:    22.8343167129
  - # 5
    frequency:    22.8493368895
  - # 6
    frequency:    24.2273092059
  - # 7
    frequency:    24.2273092059
  - # 8
    frequency:    24.4422299124
  - # 9
    frequency:    24.4422299124
  - # 10
    frequency:    33.9054972151
  - # 11
    frequency:    33.9054972151
  - # 12
    frequency:    34.0297644745
  - # 13
    frequency:    34.0297644745
  - # 14
    frequency:    34.2396273442
  - # 15
    frequency:    34.8491741470
  - # 16
    frequency:    34.8802787074
  - # 17
    frequency:    37.1302843106
  - # 18
    frequency:    37.1302843106
  - # 19
    frequency:    37.4441479837
  - # 20
    frequency:    37.4441479837
  - # 21
    frequency:    39.5777715568
  - # 22
    frequency:    40.5753182142
  - # 23
    frequency:    40.5762417606
  - # 24
    frequency:    41.0031821037

- q-position: [    0.1770833,    0.0104167,    0.0104167 ]
  distance_from_gamma:  0.050598160
  weight: 24   
  band:
  - # 1
    frequency:     6.3236647558
  - # 2
    frequency:     6.3291908320
  - # 3
    frequency:     8.9607931374
  - # 4
    frequency:    22.6157471970
  - # 5
    frequency:    22.6307286294
  - # 6
    frequency:    24.4071382970
  - # 7
    frequency:    24.4071382970
  - # 8
    frequency:    24.6475819900
  - # 9
    frequency:    24.6475819900
  - # 10
    frequency:    33.7503796861
  - # 11
    frequency:    33.7815568834
  - # 12
    frequency:    33.7815568834
  - # 13
    frequency:    33.9213486765
  - # 14
    frequency:    33.9213486765
  - # 15
    frequency:    34.9790941185
  - # 16
    frequency:    34.9944220854
  - # 17
    frequency:    37.0986607465
  - # 18
    frequency:    37.0986607465
  - # 19
    frequency:    37.4027126834
  - # 20
    frequency:    37.4027126834
  - # 21
    frequency:    39.7901903334
  - # 22
    frequency:    40.4844648610
  - # 23
    frequency:    40.4853869680
  - # 24
    frequency:    41.0296688865

- q-position: [    0.1979167,    0.0104167,    0.0104167 ]
  distance_from_gamma:  0.056512113
  weight: 24   
  band:
  - # 1
    frequency:     7.0454608655
  - # 2
    frequency:     7.0491798705
  - # 3
    frequency:     9.9782081759
  - # 4
    frequency:    22.3721711090
  - # 5
    frequency:    22.3870936280
  - # 6
    frequency:    24.6061823637
  - # 7
    frequency:    24.6061823637
  - # 8
    frequency:    24.8711360590
  - # 9
    frequency:    24.8711360590
  - # 10
    frequency:    33.2309611666
  - # 11
    frequency:    33.6425646489
  - # 12
    frequency:    33.6425646489
  - # 13
    frequency:    33.7971434983
  - # 14
    frequency:    33.7971434983
  - # 15
    frequency:    35.1216132890
  - # 16
    frequency:    35.1315003046
  - # 17
    frequency:    37.0664844631
  - # 18
    frequency:    37.0664844631
  - # 19
    frequency:    37.3599874375
  - # 20
    frequency:    37.3599874375
  - # 21
    frequency:    39.9867371208
  - # 22
    frequency:    40.3830160760
  - # 23
    frequency:    40.3839361800
  - # 24
    frequency:    41.0580426945

- q-position: [    0.2187500,    0.0104167,    0.0104167 ]
  distance_from_gamma:  0.062429534
  weight: 24   
  band:
  - # 1
    frequency:     7.7605574541
  - # 2
    frequency:     7.7626871660
  - # 3
    frequency:    10.9877386753
  - # 4
    frequency:    22.1042087004
  - # 5
    frequency:    22.1190486667
  - # 6
    frequency:    24.8226541962
  - # 7
    frequency:    24.8226541962
  - # 8
    frequency:    25.1110735888
  - # 9
    frequency:    25.1110735888
  - # 10
    frequency:    32.6889320402
  - # 11
    frequency:    33.4888171184
  - # 12
    frequency:    33.4888171184
  - # 13
    frequency:    33.6571977808
  - # 14
    frequency:    33.6571977808
  - # 15
    frequency:    35.2756890989
  - # 16
    frequency:    35.2828477558
  - # 17
    frequency:    37.0345173902
  - # 18
    frequency:    37.0345173902
  - # 19
    frequency:    37.3169338394
  - # 20
    frequency:    37.3169338394
  - # 21
    frequency:    40.1677906336
  - # 22
    frequency:    40.2712448165
  - # 23
    frequency:    40.2721626001
  - # 24
    frequency:    41.0878277469

- q-position: [    0.2395833,    0.0104167,    0.0104167 ]
  distance_from_gamma:  0.068349524
  weight: 24   
  band:
  - # 1
    frequency:     8.4682115529
  - # 2
    frequency:     8.4689188955
  - # 3
    frequency:    11.9883227874
  - # 4
    frequency:    21.8124763230
  - # 5
    frequency:    21.8272069606
  - # 6
    frequency:    25.0545744241
  - # 7
    frequency:    25.0545744241
  - # 8
    frequency:    25.3654087109
  - # 9
    frequency:    25.3654087109
  - # 10
    frequency:    32.1258725965
  - # 11
    frequency:    33.3208792725
  - # 12
    frequency:    33.3208792725
  - # 13
    frequency:    33.5018015976
  - # 14
    frequency:    33.5018015976
  - # 15
    frequency:    35.4402594526
  - # 16
    frequency:    35.4457804502
  - # 17
    frequency:    37.0034267174
  - # 18
    frequency:    37.0034267174
  - # 19
    frequency:    37.2744340792
  - # 20
    frequency:    37.2744340792
  - # 21
    frequency:    40.1494565399
  - # 22
    frequency:    40.1503719275
  - # 23
    frequency:    40.3337486403
  - # 24
    frequency:    41.1185096576

- q-position: [    0.2604167,    0.0104167,    0.0104167 ]
  distance_from_gamma:  0.074271467
  weight: 24   
  band:
  - # 1
    frequency:     9.1671168135
  - # 2
    frequency:     9.1677001380
  - # 3
    frequency:    12.9789952659
  - # 4
    frequency:    21.4975807128
  - # 5
    frequency:    21.5121724968
  - # 6
    frequency:    25.2997535408
  - # 7
    frequency:    25.2997535408
  - # 8
    frequency:    25.6319714247
  - # 9
    frequency:    25.6319714247
  - # 10
    frequency:    31.5423086018
  - # 11
    frequency:    33.1396363378
  - # 12
    frequency:    33.1396363378
  - # 13
    frequency:    33.3315408190
  - # 14
    frequency:    33.3315408190
  - # 15
    frequency:    35.6142545492
  - # 16
    frequency:    35.6186836778
  - # 17
    frequency:    36.9737689619
  - # 18
    frequency:    36.9737689619
  - # 19
    frequency:    37.2332654095
  - # 20
    frequency:    37.2332654095
  - # 21
    frequency:    40.0179897401
  - # 22
    frequency:    40.0189029294
  - # 23
    frequency:    40.4850281799
  - # 24
    frequency:    41.1495393080

- q-position: [    0.2812500,    0.0104167,    0.0104167 ]
  distance_from_gamma:  0.080194932
  weight: 24   
  band:
  - # 1
    frequency:     9.8565479437
  - # 2
    frequency:     9.8583152146
  - # 3
    frequency:    13.9588632412
  - # 4
    frequency:    21.1601160292
  - # 5
    frequency:    21.1745370991
  - # 6
    frequency:    25.5557573133
  - # 7
    frequency:    25.5557573133
  - # 8
    frequency:    25.9083740113
  - # 9
    frequency:    25.9083740113
  - # 10
    frequency:    30.9384774900
  - # 11
    frequency:    32.9463523373
  - # 12
    frequency:    32.9463523373
  - # 13
    frequency:    33.1473538801
  - # 14
    frequency:    33.1473538801
  - # 15
    frequency:    35.7966060202
  - # 16
    frequency:    35.8002562301
  - # 17
    frequency:    36.9459847431
  - # 18
    frequency:    36.9459847431
  - # 19
    frequency:    37.1940858702
  - # 20
    frequency:    37.1940858702
  - # 21
    frequency:    39.8772164668
  - # 22
    frequency:    39.8781279846
  - # 23
    frequency:    40.6220658060
  - # 24
    frequency:    41.1803368627

- q-position: [    0.3020833,    0.0104167,    0.0104167 ]
  distance_from_gamma:  0.086119603
  weight: 24   
  band:
  - # 1
    frequency:    10.5364987765
  - # 2
    frequency:    10.5393613362
  - # 3
    frequency:    14.9270924341
  - # 4
    frequency:    20.8006630879
  - # 5
    frequency:    20.8148796609
  - # 6
    frequency:    25.8198478581
  - # 7
    frequency:    25.8198478581
  - # 8
    frequency:    26.1919525635
  - # 9
    frequency:    26.1919525635
  - # 10
    frequency:    30.3145245414
  - # 11
    frequency:    32.7427448982
  - # 12
    frequency:    32.7427448982
  - # 13
    frequency:    32.9505982185
  - # 14
    frequency:    32.9505982185
  - # 15
    frequency:    35.9862538301
  - # 16
    frequency:    35.9893224112
  - # 17
    frequency:    36.9204027480
  - # 18
    frequency:    36.9204027480
  - # 19
    frequency:    37.1574311253
  - # 20
    frequency:    37.1574311253
  - # 21
    frequency:    39.7275428103
  - # 22
    frequency:    39.7284535884
  - # 23
    frequency:    40.7453178130
  - # 24
    frequency:    41.2102958655

- q-position: [    0.3229167,    0.0104167,    0.0104167 ]
  distance_from_gamma:  0.092045249
  weight: 24   
  band:
  - # 1
    frequency:    11.2062719369
  - # 2
    frequency:    11.2101543875
  - # 3
    frequency:    15.8828991047
  - # 4
    frequency:    20.4197902128
  - # 5
    frequency:    20.4337669782
  - # 6
    frequency:    26.0888890779
  - # 7
    frequency:    26.0888890779
  - # 8
    frequency:    26.4796712600
  - # 9
    frequency:    26.4796712600
  - # 10
    frequency:    29.6705695069
  - # 11
    frequency:    32.5310907709
  - # 12
    frequency:    32.5310907709
  - # 13
    frequency:    32.7431394221
  - # 14
    frequency:    32.7431394221
  - # 15
    frequency:    36.1821514253
  - # 16
    frequency:    36.1847718564
  - # 17
    frequency:    36.8972505146
  - # 18
    frequency:    36.8972505146
  - # 19
    frequency:    37.1237207507
  - # 20
    frequency:    37.1237207507
  - # 21
    frequency:    39.5694093348
  - # 22
    frequency:    39.5703208031
  - # 23
    frequency:    40.8552604093
  - # 24
    frequency:    41.2387873587

- q-position: [    0.3437500,    0.0104167,    0.0104167 ]
  distance_from_gamma:  0.097971692
  weight: 24   
  band:
  - # 1
    frequency:    11.8651842671
  - # 2
    frequency:    11.8700210513
  - # 3
    frequency:    16.8255452683
  - # 4
    frequency:    20.0180551769
  - # 5
    frequency:    20.0317556563
  - # 6
    frequency:    26.3592001242
  - # 7
    frequency:    26.3592001242
  - # 8
    frequency:    26.7679704884
  - # 9
    frequency:    26.7679704884
  - # 10
    frequency:    29.0067340405
  - # 11
    frequency:    32.3143822418
  - # 12
    frequency:    32.3143822418
  - # 13
    frequency:    32.5274833541
  - # 14
    frequency:    32.5274833541
  - # 15
    frequency:    36.3832695778
  - # 16
    frequency:    36.3855372303
  - # 17
    frequency:    36.8766694282
  - # 18
    frequency:    36.8766694282
  - # 19
    frequency:    37.0932713326
  - # 20
    frequency:    37.0932713326
  - # 21
    frequency:    39.4032914423
  - # 22
    frequency:    39.4042056383
  - # 23
    frequency:    40.9523898054
  - # 24
    frequency:    41.2651639747

- q-position: [    0.3645833,    0.0104167,    0.0104167 ]
  distance_from_gamma:  0.103898796
  weight: 24   
  band:
  - # 1
    frequency:    12.5125657387
  - # 2
    frequency:    12.5182986540
  - # 3
    frequency:    17.7543358219
  - # 4
    frequency:    19.5960077866
  - # 5
    frequency:    19.6093946493
  - # 6
    frequency:    26.6263346998
  - # 7
    frequency:    26.6263346998
  - # 8
    frequency:    27.0525309997
  - # 9
    frequency:    27.0525309997
  - # 10
    frequency:    28.3231548169
  - # 11
    frequency:    32.0965601631
  - # 12
    frequency:    32.0965601631
  - # 13
    frequency:    32.3069809501
  - # 14
    frequency:    32.3069809501
  - # 15
    frequency:    36.5885993006
  - # 16
    frequency:    36.5905852923
  - # 17
    frequency:    36.8587316020
  - # 18
    frequency:    36.8587316020
  - # 19
    frequency:    37.0663134023
  - # 20
    frequency:    37.0663134023
  - # 21
    frequency:    39.2296996509
  - # 22
    frequency:    39.2306193472
  - # 23
    frequency:    41.0372221880
  - # 24
    frequency:    41.2887639504

- q-position: [    0.3854167,    0.0104167,    0.0104167 ]
  distance_from_gamma:  0.109826454
  weight: 24   
  band:
  - # 1
    frequency:    13.1477588568
  - # 2
    frequency:    13.1543352123
  - # 3
    frequency:    18.6686167965
  - # 4
    frequency:    19.1541927558
  - # 5
    frequency:    19.1672280819
  - # 6
    frequency:    26.8847611057
  - # 7
    frequency:    26.8847611057
  - # 8
    frequency:    27.3279175086
  - # 9
    frequency:    27.3279175086
  - # 10
    frequency:    27.6199906532
  - # 11
    frequency:    31.8828492460
  - # 12
    frequency:    31.8828492460
  - # 13
    frequency:    32.0861464616
  - # 14
    frequency:    32.0861464616
  - # 15
    frequency:    36.7971541309
  - # 16
    frequency:    36.7989132909
  - # 17
    frequency:    36.8434568924
  - # 18
    frequency:    36.8434568924
  - # 19
    frequency:    37.0430094552
  - # 20
    frequency:    37.0430094552
  - # 21
    frequency:    39.0491797714
  - # 22
    frequency:    39.0501086206
  - # 23
    frequency:    41.1102935534
  - # 24
    frequency:    41.3089150227

- q-position: [    0.4062500,    0.0104167,    0.0104167 ]
  distance_from_gamma:  0.115754580
  weight: 24   
  band:
  - # 1
    frequency:    13.7701183438
  - # 2
    frequency:    13.7774895712
  - # 3
    frequency:    18.6931526094
  - # 4
    frequency:    18.7057980963
  - # 5
    frequency:    19.5677742736
  - # 6
    frequency:    26.8974268335
  - # 7
    frequency:    27.1274311493
  - # 8
    frequency:    27.1274311493
  - # 9
    frequency:    27.5870690378
  - # 10
    frequency:    27.5870690378
  - # 11
    frequency:    31.6801964353
  - # 12
    frequency:    31.6801964353
  - # 13
    frequency:    31.8711364913
  - # 14
    frequency:    31.8711364913
  - # 15
    frequency:    36.8308289365
  - # 16
    frequency:    36.8308289365
  - # 17
    frequency:    37.0079719962
  - # 18
    frequency:    37.0095476893
  - # 19
    frequency:    37.0234708881
  - # 20
    frequency:    37.0234708881
  - # 21
    frequency:    38.8623129691
  - # 22
    frequency:    38.8632556693
  - # 23
    frequency:    41.1721593755
  - # 24
    frequency:    41.3249381651

- q-position: [    0.4270833,    0.0104167,    0.0104167 ]
  distance_from_gamma:  0.121683107
  weight: 24   
  band:
  - # 1
    frequency:    14.3790109660
  - # 2
    frequency:    14.3871315595
  - # 3
    frequency:    18.2134304355
  - # 4
    frequency:    18.2256475445
  - # 5
    frequency:    20.4512336766
  - # 6
    frequency:    26.1556780007
  - # 7
    frequency:    27.3452915404
  - # 8
    frequency:    27.3452915404
  - # 9
    frequency:    27.8206609961
  - # 10
    frequency:    27.8206609961
  - # 11
    frequency:    31.4977097261
  - # 12
    frequency:    31.4977097261
  - # 13
    frequency:    31.6704162097
  - # 14
    frequency:    31.6704162097
  - # 15
    frequency:    36.8208096348
  - # 16
    frequency:    36.8208096348
  - # 17
    frequency:    37.0077724137
  - # 18
    frequency:    37.0077724137
  - # 19
    frequency:    37.2201168118
  - # 20
    frequency:    37.2215439941
  - # 21
    frequency:    38.6697156982
  - # 22
    frequency:    38.6706781814
  - # 23
    frequency:    41.2233940848
  - # 24
    frequency:    41.3361511339

- q-position: [    0.4479167,    0.0104167,    0.0104167 ]
  distance_from_gamma:  0.127611979
  weight: 24   
  band:
  - # 1
    frequency:    14.9738154035
  - # 2
    frequency:    14.9826421030
  - # 3
    frequency:    17.7155723732
  - # 4
    frequency:    17.7273224142
  - # 5
    frequency:    21.3184592578
  - # 6
    frequency:    25.3949902466
  - # 7
    frequency:    27.5269823176
  - # 8
    frequency:    27.5269823176
  - # 9
    frequency:    28.0165756536
  - # 10
    frequency:    28.0165756536
  - # 11
    frequency:    31.3466968900
  - # 12
    frequency:    31.3466968900
  - # 13
    frequency:    31.4955333976
  - # 14
    frequency:    31.4955333976
  - # 15
    frequency:    36.8133518196
  - # 16
    frequency:    36.8133518196
  - # 17
    frequency:    36.9959632391
  - # 18
    frequency:    36.9959632391
  - # 19
    frequency:    37.4326799028
  - # 20
    frequency:    37.4339871351
  - # 21
    frequency:    38.4720395016
  - # 22
    frequency:    38.4730291485
  - # 23
    frequency:    41.2645903383
  - # 24
    frequency:    41.3418717955

- q-position: [    0.4687500,    0.0104167,    0.0104167 ]
  distance_from_gamma:  0.133541149
  weight: 24   
  band:
  - # 1
    frequency:    15.5539220891
  - # 2
    frequency:    15.5634132476
  - # 3
    frequency:    17.2001297737
  - # 4
    frequency:    17.2113739261
  - # 5
    frequency:    22.1689536642
  - # 6
    frequency:    24.6156427121
  - # 7
    frequency:    27.6593412086
  - # 8
    frequency:    27.6593412086
  - # 9
    frequency:    28.1602105481
  - # 10
    frequency:    28.1602105481
  - # 11
    frequency:    31.2393047478
  - # 12
    frequency:    31.2393047478
  - # 13
    frequency:    31.3616518117
  - # 14
    frequency:    31.3616518117
  - # 15
    frequency:    36.8084099553
  - # 16
    frequency:    36.8084099553
  - # 17
    frequency:    36.9880749270
  - # 18
    frequency:    36.9880749270
  - # 19
    frequency:    37.6447813007
  - # 20
    frequency:    37.6459921260
  - # 21
    frequency:    38.2699706686
  - # 22
    frequency:    38.2709965580
  - # 23
    frequency:    41.2963580608
  - # 24
    frequency:    41.3414212120

- q-position: [    0.4895833,    0.0104167,    0.0104167 ]
  distance_from_gamma:  0.139470579
  weight: 24   
  band:
  - # 1
    frequency:    16.1187329520
  - # 2
    frequency:    16.1288480484
  - # 3
    frequency:    16.6676610120
  - # 4
    frequency:    16.6783602796
  - # 5
    frequency:    23.0022575036
  - # 6
    frequency:    23.8179488589
  - # 7
    frequency:    27.7296309056
  - # 8
    frequency:    27.7296309056
  - # 9
    frequency:    28.2368946298
  - # 10
    frequency:    28.2368946298
  - # 11
    frequency:    31.1845189650
  - # 12
    frequency:    31.1845189650
  - # 13
    frequency:    31.2868972121
  - # 14
    frequency:    31.2868972121
  - # 15
    frequency:    36.8059486503
  - # 16
    frequency:    36.8059486503
  - # 17
    frequency:    36.9841263396
  - # 18
    frequency:    36.9841263396
  - # 19
    frequency:    37.8555709387
  - # 20
    frequency:    37.8567048605
  - # 21
    frequency:    38.0642297511
  - # 22
    frequency:    38.0653029518
  - # 23
    frequency:    41.3193232411
  - # 24
    frequency:    41.3341264705

- q-position: [    0.0312500,    0.0312500,    0.0104167 ]
  distance_from_gamma:  0.012929003
  weight: 24   
  band:
  - # 1
    frequency:     1.4838355681
  - # 2
    frequency:     1.6130923708
  - # 3
    frequency:     2.4260725234
  - # 4
    frequency:    23.5996063373
  - # 5
    frequency:    23.5996063373
  - # 6
    frequency:    23.6094190234
  - # 7
    frequency:    23.6446578431
  - # 8
    frequency:    23.6446578431
  - # 9
    frequency:    23.7442155319
  - # 10
    frequency:    34.2994424826
  - # 11
    frequency:    34.3527505840
  - # 12
    frequency:    34.3527505840
  - # 13
    frequency:    34.3737864865
  - # 14
    frequency:    34.3805739587
  - # 15
    frequency:    34.3805739587
  - # 16
    frequency:    36.8986796522
  - # 17
    frequency:    36.8986796522
  - # 18
    frequency:    37.2479772162
  - # 19
    frequency:    37.6120835196
  - # 20
    frequency:    37.9407821618
  - # 21
    frequency:    37.9407821618
  - # 22
    frequency:    40.8753030819
  - # 23
    frequency:    40.8812164894
  - # 24
    frequency:    40.9030298624

- q-position: [    0.0520833,    0.0312500,    0.0104167 ]
  distance_from_gamma:  0.017547783
  weight: 48   
  band:
  - # 1
    frequency:     2.0489893463
  - # 2
    frequency:     2.2031192562
  - # 3
    frequency:     3.2571852467
  - # 4
    frequency:    23.5426585263
  - # 5
    frequency:    23.5877739183
  - # 6
    frequency:    23.6170026570
  - # 7
    frequency:    23.6370928584
  - # 8
    frequency:    23.7119997471
  - # 9
    frequency:    23.8408379176
  - # 10
    frequency:    34.2486655392
  - # 11
    frequency:    34.3119529470
  - # 12
    frequency:    34.3624720870
  - # 13
    frequency:    34.3711295198
  - # 14
    frequency:    34.3826494598
  - # 15
    frequency:    34.4166027931
  - # 16
    frequency:    36.5184541939
  - # 17
    frequency:    36.8979925732
  - # 18
    frequency:    37.2211033085
  - # 19
    frequency:    37.6120165806
  - # 20
    frequency:    37.9202328650
  - # 21
    frequency:    38.2531551198
  - # 22
    frequency:    40.8522044475
  - # 23
    frequency:    40.8606203467
  - # 24
    frequency:    40.9079812097

- q-position: [    0.0729167,    0.0312500,    0.0104167 ]
  distance_from_gamma:  0.022783175
  weight: 48   
  band: