 vasp.5.4.4.18Apr17-6-g9f103f2a35 (build Jul  5 2023 12:24:19) complex           
 executed on NVIDIA22.7_CrayMPICH date 2023.10.17  09:01:29
 running on   16 total cores
 distrk:  each k-point on   16 cores,    1 groups
 distr:  one band on NCORES_PER_BAND=   1 cores,   16 groups


--------------------------------------------------------------------------------------------------------


 INCAR:
 POTCAR:   PAW_PBE C 08Apr2002                    

 ----------------------------------------------------------------------------- 
|                                                                             |
|           W    W    AA    RRRRR   N    N  II  N    N   GGGG   !!!           |
|           W    W   A  A   R    R  NN   N  II  NN   N  G    G  !!!           |
|           W    W  A    A  R    R  N N  N  II  N N  N  G       !!!           |
|           W WW W  AAAAAA  RRRRR   N  N N  II  N  N N  G  GGG   !            |
|           WW  WW  A    A  R   R   N   NN  II  N   NN  G    G                |
|           W    W  A    A  R    R  N    N  II  N    N   GGGG   !!!           |
|                                                                             |
|      For optimal performance we recommend to set                            |
|        NCORE= 4 - approx SQRT( number of cores)                             |
|      NCORE specifies how many cores store one orbital (NPAR=cpu/NCORE).     |
|      This setting can  greatly improve the performance of VASP for DFT.     |
|      The default,   NCORE=1            might be grossly inefficient         |
|      on modern multi-core architectures or massively parallel machines.     |
|      Do your own testing !!!!                                               |
|      Unfortunately you need to use the default for GW and RPA calculations. |
|      (for HF NCORE is supported but not extensively tested yet)             |
|                                                                             |
 ----------------------------------------------------------------------------- 

 POTCAR:   PAW_PBE C 08Apr2002                    
  local pseudopotential read in
  atomic valenz-charges read in
  non local Contribution for L=            0  read in
    real space projection operators read in
  non local Contribution for L=            0  read in
    real space projection operators read in
  non local Contribution for L=            1  read in
    real space projection operators read in
  non local Contribution for L=            1  read in
    real space projection operators read in
    PAW grid and wavefunctions read in
 
   number of l-projection  operators is LMAX  =            4
   number of lm-projection operators is LMMAX =            8
 

 ----------------------------------------------------------------------------- 
|                                                                             |
|  ADVICE TO THIS USER RUNNING 'VASP/VAMP'   (HEAR YOUR MASTER'S VOICE ...):  |
|                                                                             |
|      You have a (more or less) 'large supercell' and for larger cells       |
|      it might be more efficient to use real space projection operators      |
|      So try LREAL= Auto  in the INCAR   file.                               |
|      Mind: If you want to do a very accurate calculations keep the          |
|      reciprocal projection scheme          (i.e. LREAL=.FALSE.)             |
|                                                                             |
 ----------------------------------------------------------------------------- 

 PAW_PBE C 08Apr2002                    :
 energy of atom  1       EATOM= -147.1560
 kinetic energy error for atom=    0.0288 (will be added to EATOM!!)
 
 
 POSCAR: generated by phonopy                    
  positions in direct lattice
  No initial velocities read in
 exchange correlation table for  LEXCH =        8
   RHO(1)=    0.500       N(1)  =     2000
   RHO(2)=  100.500       N(2)  =     4000
 


--------------------------------------------------------------------------------------------------------


 ion  position               nearest neighbor table
   1  0.378  0.378  0.378-  25 1.52   9 1.52  33 1.52  17 1.52
   2  0.878  0.378  0.378-  26 1.52  10 1.52  34 1.52  18 1.52
   3  0.378  0.878  0.378-  27 1.52  11 1.52  35 1.52  19 1.52
   4  0.878  0.878  0.378-  28 1.52  12 1.52  36 1.52  20 1.52
   5  0.378  0.378  0.878-  29 1.52  13 1.52  37 1.52  21 1.52
   6  0.878  0.378  0.878-  30 1.52  14 1.52  38 1.52  22 1.52
   7  0.378  0.878  0.878-  31 1.52  15 1.52  39 1.52  23 1.52
   8  0.878  0.878  0.878-  32 1.52  16 1.52  40 1.52  24 1.52
   9  0.503  0.253  0.503-   1 1.52  45 1.52  50 1.52  62 1.52
  10  0.003  0.253  0.503-   2 1.52  46 1.52  49 1.52  61 1.52
  11  0.503  0.753  0.503-   3 1.52  47 1.52  52 1.52  64 1.52
  12  0.003  0.753  0.503-   4 1.52  48 1.52  51 1.52  63 1.52
  13  0.503  0.253  0.003-   5 1.52  41 1.52  54 1.52  58 1.52
  14  0.003  0.253  0.003-   6 1.52  42 1.52  53 1.52  57 1.52
  15  0.503  0.753  0.003-   7 1.52  43 1.52  56 1.52  60 1.52
  16  0.003  0.753  0.003-   8 1.52  44 1.52  55 1.52  59 1.52
  17  0.253  0.253  0.253-   1 1.52  41 1.52  49 1.52  57 1.52
  18  0.753  0.253  0.253-   2 1.52  42 1.52  50 1.52  58 1.52
  19  0.253  0.753  0.253-   3 1.52  43 1.52  51 1.52  59 1.52
  20  0.753  0.753  0.253-   4 1.52  44 1.52  52 1.52  60 1.52
  21  0.253  0.253  0.753-   5 1.52  45 1.52  53 1.52  61 1.52
  22  0.753  0.253  0.753-   6 1.52  46 1.52  54 1.52  62 1.52
  23  0.253  0.753  0.753-   7 1.52  47 1.52  55 1.52  63 1.52
  24  0.753  0.753  0.753-   8 1.52  48 1.52  56 1.52  64 1.52
  25  0.503  0.503  0.253-   1 1.52  43 1.52  58 1.52  52 1.52
  26  0.003  0.503  0.253-   2 1.52  44 1.52  57 1.52  51 1.52
  27  0.503  0.003  0.253-   3 1.52  41 1.52  60 1.52  50 1.52
  28  0.003  0.003  0.253-   4 1.52  42 1.52  59 1.52  49 1.52
  29  0.503  0.503  0.753-   5 1.52  47 1.52  62 1.52  56 1.52
  30  0.003  0.503  0.753-   6 1.52  48 1.52  61 1.52  55 1.52
  31  0.503  0.003  0.753-   7 1.52  45 1.52  64 1.52  54 1.52
  32  0.003  0.003  0.753-   8 1.52  46 1.52  63 1.52  53 1.52
  33  0.253  0.503  0.503-   1 1.52  51 1.52  61 1.52  47 1.52
  34  0.753  0.503  0.503-   2 1.52  52 1.52  62 1.52  48 1.52
  35  0.253  0.003  0.503-   3 1.52  49 1.52  63 1.52  45 1.52
  36  0.753  0.003  0.503-   4 1.52  50 1.52  64 1.52  46 1.52
  37  0.253  0.503  0.003-   5 1.52  55 1.52  57 1.52  43 1.52
  38  0.753  0.503  0.003-   6 1.52  56 1.52  58 1.52  44 1.52
  39  0.253  0.003  0.003-   7 1.52  53 1.52  59 1.52  41 1.52
  40  0.753  0.003  0.003-   8 1.52  54 1.52  60 1.52  42 1.52
  41  0.378  0.128  0.128-  17 1.52  27 1.52  13 1.52  39 1.52
  42  0.878  0.128  0.128-  18 1.52  28 1.52  14 1.52  40 1.52
  43  0.378  0.628  0.128-  19 1.52  25 1.52  15 1.52  37 1.52
  44  0.878  0.628  0.128-  20 1.52  26 1.52  16 1.52  38 1.52
  45  0.378  0.128  0.628-  21 1.52  31 1.52   9 1.52  35 1.52
  46  0.878  0.128  0.628-  22 1.52  32 1.52  10 1.52  36 1.52
  47  0.378  0.628  0.628-  23 1.52  29 1.52  11 1.52  33 1.52
  48  0.878  0.628  0.628-  24 1.52  30 1.52  12 1.52  34 1.52
  49  0.128  0.128  0.378-  17 1.52  10 1.52  35 1.52  28 1.52
  50  0.628  0.128  0.378-  18 1.52   9 1.52  36 1.52  27 1.52
  51  0.128  0.628  0.378-  19 1.52  12 1.52  33 1.52  26 1.52
  52  0.628  0.628  0.378-  20 1.52  11 1.52  34 1.52  25 1.52
  53  0.128  0.128  0.878-  21 1.52  14 1.52  39 1.52  32 1.52
  54  0.628  0.128  0.878-  22 1.52  13 1.52  40 1.52  31 1.52
  55  0.128  0.628  0.878-  23 1.52  16 1.52  37 1.52  30 1.52
  56  0.628  0.628  0.878-  24 1.52  15 1.52  38 1.52  29 1.52
  57  0.128  0.378  0.128-  17 1.52  26 1.52  37 1.52  14 1.52
  58  0.628  0.378  0.128-  18 1.52  25 1.52  38 1.52  13 1.52
  59  0.128  0.878  0.128-  19 1.52  28 1.52  39 1.52  16 1.52
  60  0.628  0.878  0.128-  20 1.52  27 1.52  40 1.52  15 1.52
  61  0.128  0.378  0.628-  21 1.52  30 1.52  33 1.52  10 1.52
  62  0.628  0.378  0.628-  22 1.52  29 1.52  34 1.52   9 1.52
  63  0.128  0.878  0.628-  23 1.52  32 1.52  35 1.52  12 1.52
  64  0.628  0.878  0.628-  24 1.52  31 1.52  36 1.52  11 1.52
 
  LATTYP: Found a simple cubic cell.
 ALAT       =     7.0237740000
  
  Lattice vectors:
  
 A1 = (   7.0237740000,   0.0000000000,   0.0000000000)
 A2 = (   0.0000000000,   7.0237740000,   0.0000000000)
 A3 = (   0.0000000000,   0.0000000000,   7.0237740000)


Analysis of symmetry for initial positions (statically):
=====================================================================
 Subroutine PRICEL returns following result:
 
  LATTYP: Found a face centered cubic cell.
 ALAT       =     3.5118940238
  
  Lattice vectors:
  
 A1 = (   1.7559470119,   1.7559470119,  -0.0000070238)
 A2 = (   1.7559470119,  -0.0000000000,  -1.7559470119)
 A3 = (   0.0000000000,   1.7559470119,  -1.7559470119)
 
  32 primitive cells build up your supercell.
 

 Routine SETGRP: Setting up the symmetry group for a 
 simple cubic supercell.


 Subroutine GETGRP returns: Found 48 space group operations
 (whereof  6 operations were pure point group operations)
 out of a pool of 48 trial point group operations.


The static configuration has the point symmetry C_3v.
 The point group associated with its full space group is O_h .


Analysis of symmetry for dynamics (positions and initial velocities):
=====================================================================
 Subroutine PRICEL returns following result:
 
  LATTYP: Found a face centered cubic cell.
 ALAT       =     3.5118940238
  
  Lattice vectors:
  
 A1 = (   1.7559470119,   1.7559470119,  -0.0000070238)
 A2 = (   1.7559470119,  -0.0000000000,  -1.7559470119)
 A3 = (   0.0000000000,   1.7559470119,  -1.7559470119)
 
  32 primitive cells build up your supercell.
 

 Routine SETGRP: Setting up the symmetry group for a 
 simple cubic supercell.


 Subroutine GETGRP returns: Found 48 space group operations
 (whereof  6 operations were pure point group operations)
 out of a pool of 48 trial point group operations.


The dynamic configuration has the point symmetry C_3v.
 The point group associated with its full space group is O_h .


Analysis of structural, dynamic, and magnetic symmetry:
=====================================================================
 Subroutine PRICEL returns following result:
 
  LATTYP: Found a face centered cubic cell.
 ALAT       =     3.5118940238
  
  Lattice vectors:
  
 A1 = (   1.7559470119,   1.7559470119,  -0.0000070238)
 A2 = (   1.7559470119,  -0.0000000000,  -1.7559470119)
 A3 = (   0.0000000000,   1.7559470119,  -1.7559470119)
 
  32 primitive cells build up your supercell.
 

 Routine SETGRP: Setting up the symmetry group for a 
 simple cubic supercell.


 Subroutine GETGRP returns: Found 48 space group operations
 (whereof  6 operations were pure point group operations)
 out of a pool of 48 trial point group operations.


The magnetic configuration has the point symmetry C_3v.
 The point group associated with its full space group is O_h .


 Subroutine INISYM returns: Found 48 space group operations
 (whereof  6 operations are pure point group operations),
 and found    32 'primitive' translations

 
 
 KPOINTS: kpt_density=500                         

Automatic generation of k-mesh.
Space group operators:
 irot       det(A)        alpha          n_x          n_y          n_z        tau_x        tau_y        tau_z
    1     1.000000     0.000000     1.000000     0.000000     0.000000     0.000000     0.000000    -0.000000
    2     1.000000   120.000000    -0.577350    -0.577350    -0.577350     0.000000     0.000000    -0.000000
    3     1.000000   120.000000     0.577350     0.577350     0.577350     0.000000     0.000000    -0.000000
    4    -1.000000   180.000000     0.000000    -0.707107     0.707107     0.000000     0.000000    -0.000000
    5    -1.000000   180.000000     0.707107    -0.707107     0.000000     0.000000     0.000000    -0.000000
    6    -1.000000   180.000000     0.707107     0.000000    -0.707107     0.000000     0.000000    -0.000000
    7    -1.000000     0.000000     1.000000     0.000000     0.000000     0.381697     0.381697    -0.368305
    8    -1.000000   120.000000    -0.577350    -0.577350    -0.577350     0.381697     0.381697    -0.368305
    9    -1.000000   120.000000     0.577350     0.577350     0.577350     0.381697     0.381697    -0.368305
   10     1.000000    90.000000     0.000000     0.000000    -1.000000     0.381697     0.375001    -0.375001
   11    -1.000000    90.000000     0.000000     0.000000    -1.000000     0.250001     0.006696    -0.243306
   12     1.000000   180.000000     0.000000     0.707107     0.707107     0.381697     0.375001    -0.375001
   13    -1.000000   180.000000     0.000000     0.707107     0.707107     0.250001     0.006696    -0.243306
   14     1.000000    90.000000     0.000000     1.000000     0.000000     0.381697     0.375001    -0.375001
   15    -1.000000    90.000000     0.000000     1.000000     0.000000     0.250001     0.006696    -0.243306
   16     1.000000   180.000000     0.000000     0.000000     1.000000     0.256697     0.256697    -0.500001
   17    -1.000000   180.000000     0.000000     0.000000     1.000000     0.375001     0.375001    -0.368305
   18     1.000000   120.000000    -0.577350     0.577350     0.577350     0.256697     0.256697    -0.500001
   19    -1.000000   120.000000    -0.577350     0.577350     0.577350     0.375001     0.375001    -0.368305
   20     1.000000   120.000000    -0.577350     0.577350    -0.577350     0.256697     0.256697    -0.500001
   21    -1.000000   120.000000    -0.577350     0.577350    -0.577350     0.375001     0.375001    -0.368305
   22     1.000000    90.000000     0.000000     0.000000     1.000000     0.375001     0.381697    -0.375001
   23    -1.000000    90.000000     0.000000     0.000000     1.000000     0.256697     0.250001    -0.493305
   24     1.000000    90.000000    -1.000000     0.000000     0.000000     0.375001     0.381697    -0.375001
   25    -1.000000    90.000000    -1.000000     0.000000     0.000000     0.256697     0.250001    -0.493305
   26     1.000000   180.000000     0.707107     0.000000     0.707107     0.375001     0.381697    -0.375001
   27    -1.000000   180.000000     0.707107     0.000000     0.707107     0.256697     0.250001    -0.493305
   28     1.000000   120.000000     0.577350    -0.577350     0.577350     0.250001     0.006696    -0.243306
   29    -1.000000   120.000000     0.577350    -0.577350     0.577350     0.381697     0.375001    -0.375001
   30     1.000000   120.000000    -0.577350    -0.577350     0.577350     0.250001     0.006696    -0.243306
   31    -1.000000   120.000000    -0.577350    -0.577350     0.577350     0.381697     0.375001    -0.375001
   32     1.000000   180.000000     1.000000     0.000000     0.000000     0.250001     0.006696    -0.243306
   33    -1.000000   180.000000     1.000000     0.000000     0.000000     0.381697     0.375001    -0.375001
   34     1.000000    90.000000     0.000000    -1.000000     0.000000     0.375001     0.375001    -0.368305
   35    -1.000000    90.000000     0.000000    -1.000000     0.000000     0.256697     0.256697    -0.500001
   36     1.000000   180.000000     0.707107     0.707107     0.000000     0.375001     0.375001    -0.368305
   37    -1.000000   180.000000     0.707107     0.707107     0.000000     0.256697     0.256697    -0.500001
   38     1.000000    90.000000     1.000000     0.000000     0.000000     0.375001     0.375001    -0.368305
   39    -1.000000    90.000000     1.000000     0.000000     0.000000     0.256697     0.256697    -0.500001
   40     1.000000   120.000000     0.577350    -0.577350    -0.577350     0.256697     0.250001    -0.493305
   41    -1.000000   120.000000     0.577350    -0.577350    -0.577350     0.375001     0.381697    -0.375001
   42     1.000000   180.000000     0.000000     1.000000     0.000000     0.256697     0.250001    -0.493305
   43    -1.000000   180.000000     0.000000     1.000000     0.000000     0.375001     0.381697    -0.375001
   44     1.000000   120.000000     0.577350     0.577350    -0.577350     0.256697     0.250001    -0.493305
   45    -1.000000   120.000000     0.577350     0.577350    -0.577350     0.375001     0.381697    -0.375001
   46     1.000000   180.000000     0.000000    -0.707107     0.707107     0.381697     0.381697    -0.368305
   47     1.000000   180.000000     0.707107    -0.707107     0.000000     0.381697     0.381697    -0.368305
   48     1.000000   180.000000     0.707107     0.000000    -0.707107     0.381697     0.381697    -0.368305
 
 Subroutine IBZKPT returns following result:
 ===========================================
 
 Found      4 irreducible k-points:
 
 Following reciprocal coordinates:
            Coordinates               Weight
  0.000000  0.000000  0.000000      1.000000
  0.500000  0.000000  0.000000      3.000000
  0.500000  0.500000  0.000000      3.000000
  0.500000  0.500000  0.500000      1.000000
 
 Following cartesian coordinates:
            Coordinates               Weight
  0.000000  0.000000  0.000000      1.000000
  0.071187  0.000000  0.000000      3.000000
  0.071187  0.071187  0.000000      3.000000
  0.071187  0.071187  0.071187      1.000000
 
 TETIRR: Found      4 inequivalent tetrahedra from       48
 
 Subroutine IBZKPT_HF returns following result:
 ==============================================
 
 Found      8 k-points in 1st BZ
 the following      8 k-points will be used (e.g. in the exchange kernel)
 Following reciprocal coordinates:   # in IRBZ
  0.000000  0.000000  0.000000    0.12500000   1 t-inv F
  0.500000  0.000000  0.000000    0.12500000   2 t-inv F
  0.500000  0.500000  0.000000    0.12500000   3 t-inv F
  0.500000  0.500000  0.500000    0.12500000   4 t-inv F
  0.000000  0.500000  0.000000    0.12500000   2 t-inv F
  0.000000  0.000000  0.500000    0.12500000   2 t-inv F
  0.000000  0.500000  0.500000    0.12500000   3 t-inv F
  0.500000  0.000000  0.500000    0.12500000   3 t-inv F


--------------------------------------------------------------------------------------------------------




 Dimension of arrays:
   k-points           NKPTS =      4   k-points in BZ     NKDIM =      4   number of bands    NBANDS=    208
   number of dos      NEDOS =    301   number of ions     NIONS =     64
   non local maximal  LDIM  =      4   non local SUM 2l+1 LMDIM =      8
   total plane-waves  NPLWV = 110592
   max r-space proj   IRMAX =      1   max aug-charges    IRDMAX=  30327
   dimension x,y,z NGX =    48 NGY =   48 NGZ =   48
   dimension x,y,z NGXF=    96 NGYF=   96 NGZF=   96
   support grid    NGXF=   192 NGYF=  192 NGZF=  192
   ions per type =              64
   NGX,Y,Z   is equivalent  to a cutoff of  11.36, 11.36, 11.36 a.u.
   NGXF,Y,Z  is equivalent  to a cutoff of  22.72, 22.72, 22.72 a.u.

 SYSTEM =  unknown system                          
 POSCAR =  generated by phonopy                    

 Startparameter for this run:
   NWRITE =      0    write-flag & timer
   PREC   = accura    normal or accurate (medium, high low for compatibility)
   ISTART =      0    job   : 0-new  1-cont  2-samecut
   ICHARG =      0    charge: 1-file 2-atom 10-const
   ISPIN  =      2    spin polarized calculation?
   LNONCOLLINEAR =      F non collinear calculations
   LSORBIT =      F    spin-orbit coupling
   INIWAV =      1    electr: 0-lowe 1-rand  2-diag
   LASPH  =      F    aspherical Exc in radial PAW
   METAGGA=      F    non-selfconsistent MetaGGA calc.

 Electronic Relaxation 1
   ENCUT  =  400.0 eV  29.40 Ry    5.42 a.u.  11.45 11.45 11.45*2*pi/ulx,y,z
   ENINI  =  400.0     initial cutoff
   ENAUG  =  644.9 eV  augmentation charge cutoff
   NELM   =     60;   NELMIN=  2; NELMDL= -5     # of ELM steps 
   EDIFF  = 0.1E-05   stopping-criterion for ELM
   LREAL  =      F    real-space projection
   NLSPLINE    = F    spline interpolate recip. space projectors
   LCOMPAT=      F    compatible to vasp.4.4
   GGA_COMPAT  = T    GGA compatible to vasp.4.4-vasp.4.6
   LMAXPAW     = -100 max onsite density
   LMAXMIX     =    2 max onsite mixed and CHGCAR
   VOSKOWN=      0    Vosko Wilk Nusair interpolation
   ROPT   =    0.00000
 Ionic relaxation
   EDIFFG = 0.1E-03   stopping-criterion for IOM
   NSW    =      1    number of steps for IOM
   NBLOCK =      1;   KBLOCK =      1    inner block; outer block 
   IBRION =      8    ionic relax: 0-MD 1-quasi-New 2-CG
   NFREE  =      0    steps in history (QN), initial steepest desc. (CG)
   ISIF   =      3    stress and relaxation
   IWAVPR =     11    prediction:  0-non 1-charg 2-wave 3-comb
   ISYM   =      2    0-nonsym 1-usesym 2-fastsym
   LCORR  =      T    Harris-Foulkes like correction to forces

   POTIM  = 0.0150    time-step for ionic-motion
   TEIN   =    0.0    initial temperature
   TEBEG  =    0.0;   TEEND  =   0.0 temperature during run
   SMASS  =  -3.00    Nose mass-parameter (am)
   estimated Nose-frequenzy (Omega)   =  0.10E-29 period in steps =****** mass=  -0.113E-26a.u.
   SCALEE = 1.0000    scale energy and forces
   NPACO  =    256;   APACO  = 16.0  distance and # of slots for P.C.
   PSTRESS=  500.0 pullay stress

  Mass of Ions in am
   POMASS =  12.01
  Ionic Valenz
   ZVAL   =   4.00
  Atomic Wigner-Seitz radii
   RWIGS  =  -1.00
  virtual crystal weights 
   VCA    =   1.00
   NELECT =     256.0000    total number of electrons
   NUPDOWN=      -1.0000    fix difference up-down

 DOS related values:
   EMIN   =  10.00;   EMAX   =-10.00  energy-range for DOS
   EFERMI =   0.00
   ISMEAR =    -5;   SIGMA  =   0.01  broadening in eV -4-tet -1-fermi 0-gaus

 Electronic relaxation 2 (details)
   IALGO  =     68    algorithm
   LDIAG  =      T    sub-space diagonalisation (order eigenvalues)
   LSUBROT=      F    optimize rotation matrix (better conditioning)
   TURBO    =      0    0=normal 1=particle mesh
   IRESTART =      0    0=no restart 2=restart with 2 vectors
   NREBOOT  =      0    no. of reboots
   NMIN     =      0    reboot dimension
   EREF     =   0.00    reference energy to select bands
   IMIX   =      4    mixing-type and parameters
     AMIX     =   0.40;   BMIX     =  1.00
     AMIX_MAG =   1.60;   BMIX_MAG =  1.00
     AMIN     =   0.10
     WC   =   100.;   INIMIX=   1;  MIXPRE=   1;  MAXMIX= -45

 Intra band minimization:
   WEIMIN = 0.0010     energy-eigenvalue tresh-hold
   EBREAK =  0.12E-08  absolut break condition
   DEPER  =   0.30     relativ break condition  

   TIME   =   0.40     timestep for ELM

  volume/ion in A,a.u.               =       5.41        36.54
  Fermi-wavevector in a.u.,A,eV,Ry     =   1.479963  2.796725 29.800725  2.190291
  Thomas-Fermi vector in A             =   2.594056
 
 Write flags
   LWAVE        =      F    write WAVECAR
   LDOWNSAMPLE  =      F    k-point downsampling of WAVECAR
   LCHARG       =      F    write CHGCAR
   LVTOT        =      F    write LOCPOT, total local potential
   LVHAR        =      F    write LOCPOT, Hartree potential only
   LELF         =      F    write electronic localiz. function (ELF)
   LORBIT       =     11    0 simple, 1 ext, 2 COOP (PROOUT), +10 PAW based schemes


 Dipole corrections
   LMONO  =      F    monopole corrections only (constant potential shift)
   LDIPOL =      F    correct potential (dipole corrections)
   IDIPOL =      0    1-x, 2-y, 3-z, 4-all directions 
   EPSILON=  1.0000000 bulk dielectric constant

 Exchange correlation treatment:
   GGA     =    --    GGA type
   LEXCH   =     8    internal setting for exchange type
   VOSKOWN=      0    Vosko Wilk Nusair interpolation
   LHFCALC =     F    Hartree Fock is set to
   LHFONE  =     F    Hartree Fock one center treatment
   AEXX    =    0.0000 exact exchange contribution

 Linear response parameters
   LEPSILON=     F    determine dielectric tensor
   LRPA    =     F    only Hartree local field effects (RPA)
   LNABLA  =     F    use nabla operator in PAW spheres
   LVEL    =     F    velocity operator in full k-point grid
   LINTERFAST=   F  fast interpolation
   KINTER  =     0    interpolate to denser k-point grid
   CSHIFT  =0.1000    complex shift for real part using Kramers Kronig
   OMEGAMAX=  -1.0    maximum frequency
   DEG_THRESHOLD= 0.2000000E-02 threshold for treating states as degnerate
   RTIME   =   -0.100 relaxation time in fs
  (WPLASMAI=    0.000 imaginary part of plasma frequency in eV, 0.658/RTIME)
   DFIELD  = 0.0000000 0.0000000 0.0000000 field for delta impulse in time
 
 Orbital magnetization related:
   ORBITALMAG=     F  switch on orbital magnetization
   LCHIMAG   =     F  perturbation theory with respect to B field
   DQ        =  0.001000  dq finite difference perturbation B field
   LLRAUG    =     F  two centre corrections for induced B field



--------------------------------------------------------------------------------------------------------


 linear response using symmetry
 charge density and potential will be updated during run
 spin polarized calculation
 RMM-DIIS sequential band-by-band and
  variant of blocked Davidson during initial phase
 perform sub-space diagonalisation
    before iterative eigenvector-optimisation
 modified Broyden-mixing scheme, WC =      100.0
 initial mixing is a Kerker type mixing with AMIX =  0.4000 and BMIX =      1.0000
 Hartree-type preconditioning will be used
 using additional bands            80
 reciprocal scheme for non local part
 calculate Harris-corrections to forces 
   (improved forces if not selfconsistent)
 use gradient corrections 
 use of overlap-Matrix (Vanderbilt PP)
 Fermi weights with tetrahedron method with Bloechl corrections


--------------------------------------------------------------------------------------------------------


  energy-cutoff  :      400.00
  volume of cell :      346.51
      direct lattice vectors                 reciprocal lattice vectors
     7.023774000  0.000000000  0.000000000     0.142373601  0.000000000  0.000000000
     0.000000000  7.023774000  0.000000000     0.000000000  0.142373601  0.000000000
     0.000000000  0.000000000  7.023774000     0.000000000  0.000000000  0.142373601

  length of vectors
     7.023774000  7.023774000  7.023774000     0.142373601  0.142373601  0.142373601


 
 k-points in units of 2pi/SCALE and weight: kpt_density=500                         
   0.00000000  0.00000000  0.00000000       0.125
   0.07118680  0.00000000  0.00000000       0.375
   0.07118680  0.07118680  0.00000000       0.375
   0.07118680  0.07118680  0.07118680       0.125
 
 k-points in reciprocal lattice and weights: kpt_density=500                         
   0.00000000  0.00000000  0.00000000       0.125
   0.50000000  0.00000000  0.00000000       0.375
   0.50000000  0.50000000  0.00000000       0.375
   0.50000000  0.50000000  0.50000000       0.125
 
 position of ions in fractional coordinates (direct lattice) 
   0.37834800  0.37834800  0.37834800
   0.87834800  0.37834800  0.37834800
   0.37834800  0.87834800  0.37834800
   0.87834800  0.87834800  0.37834800
   0.37834800  0.37834800  0.87834800
   0.87834800  0.37834800  0.87834800
   0.37834800  0.87834800  0.87834800
   0.87834800  0.87834800  0.87834800
   0.50334750  0.25334800  0.50334750
   0.00334750  0.25334800  0.50334750
   0.50334750  0.75334800  0.50334750
   0.00334750  0.75334800  0.50334750
   0.50334750  0.25334800  0.00334750
   0.00334750  0.25334800  0.00334750
   0.50334750  0.75334800  0.00334750
   0.00334750  0.75334800  0.00334750
   0.25334800  0.25334800  0.25334800
   0.75334800  0.25334800  0.25334800
   0.25334800  0.75334800  0.25334800
   0.75334800  0.75334800  0.25334800
   0.25334800  0.25334800  0.75334800
   0.75334800  0.25334800  0.75334800
   0.25334800  0.75334800  0.75334800
   0.75334800  0.75334800  0.75334800
   0.50334750  0.50334750  0.25334800
   0.00334750  0.50334750  0.25334800
   0.50334750  0.00334750  0.25334800
   0.00334750  0.00334750  0.25334800
   0.50334750  0.50334750  0.75334800
   0.00334750  0.50334750  0.75334800
   0.50334750  0.00334750  0.75334800
   0.00334750  0.00334750  0.75334800
   0.25334800  0.50334750  0.50334750
   0.75334800  0.50334750  0.50334750
   0.25334800  0.00334750  0.50334750
   0.75334800  0.00334750  0.50334750
   0.25334800  0.50334750  0.00334750
   0.75334800  0.50334750  0.00334750
   0.25334800  0.00334750  0.00334750
   0.75334800  0.00334750  0.00334750
   0.37834800  0.12834800  0.12834800
   0.87834800  0.12834800  0.12834800
   0.37834800  0.62834800  0.12834800
   0.87834800  0.62834800  0.12834800
   0.37834800  0.12834800  0.62834800
   0.87834800  0.12834800  0.62834800
   0.37834800  0.62834800  0.62834800
   0.87834800  0.62834800  0.62834800
   0.12834800  0.12834800  0.37834800
   0.62834800  0.12834800  0.37834800
   0.12834800  0.62834800  0.37834800
   0.62834800  0.62834800  0.37834800
   0.12834800  0.12834800  0.87834800
   0.62834800  0.12834800  0.87834800
   0.12834800  0.62834800  0.87834800
   0.62834800  0.62834800  0.87834800
   0.12834800  0.37834800  0.12834800
   0.62834800  0.37834800  0.12834800
   0.12834800  0.87834800  0.12834800
   0.62834800  0.87834800  0.12834800
   0.12834800  0.37834800  0.62834800
   0.62834800  0.37834800  0.62834800
   0.12834800  0.87834800  0.62834800
   0.62834800  0.87834800  0.62834800
 
 position of ions in cartesian coordinates  (Angst):
   2.65743085  2.65743085  2.65743085
   6.16931785  2.65743085  2.65743085
   2.65743085  6.16931785  2.65743085
   6.16931785  6.16931785  2.65743085
   2.65743085  2.65743085  6.16931785
   6.16931785  2.65743085  6.16931785
   2.65743085  6.16931785  6.16931785
   6.16931785  6.16931785  6.16931785
   3.53539908  1.77945910  3.53539908
   0.02351208  1.77945910  3.53539908
   3.53539908  5.29134610  3.53539908
   0.02351208  5.29134610  3.53539908
   3.53539908  1.77945910  0.02351208
   0.02351208  1.77945910  0.02351208
   3.53539908  5.29134610  0.02351208
   0.02351208  5.29134610  0.02351208
   1.77945910  1.77945910  1.77945910
   5.29134610  1.77945910  1.77945910
   1.77945910  5.29134610  1.77945910
   5.29134610  5.29134610  1.77945910
   1.77945910  1.77945910  5.29134610
   5.29134610  1.77945910  5.29134610
   1.77945910  5.29134610  5.29134610
   5.29134610  5.29134610  5.29134610
   3.53539908  3.53539908  1.77945910
   0.02351208  3.53539908  1.77945910
   3.53539908  0.02351208  1.77945910
   0.02351208  0.02351208  1.77945910
   3.53539908  3.53539908  5.29134610
   0.02351208  3.53539908  5.29134610
   3.53539908  0.02351208  5.29134610
   0.02351208  0.02351208  5.29134610
   1.77945910  3.53539908  3.53539908
   5.29134610  3.53539908  3.53539908
   1.77945910  0.02351208  3.53539908
   5.29134610  0.02351208  3.53539908
   1.77945910  3.53539908  0.02351208
   5.29134610  3.53539908  0.02351208
   1.77945910  0.02351208  0.02351208
   5.29134610  0.02351208  0.02351208
   2.65743085  0.90148735  0.90148735
   6.16931785  0.90148735  0.90148735
   2.65743085  4.41337435  0.90148735
   6.16931785  4.41337435  0.90148735
   2.65743085  0.90148735  4.41337435
   6.16931785  0.90148735  4.41337435
   2.65743085  4.41337435  4.41337435
   6.16931785  4.41337435  4.41337435
   0.90148735  0.90148735  2.65743085
   4.41337435  0.90148735  2.65743085
   0.90148735  4.41337435  2.65743085
   4.41337435  4.41337435  2.65743085
   0.90148735  0.90148735  6.16931785
   4.41337435  0.90148735  6.16931785
   0.90148735  4.41337435  6.16931785
   4.41337435  4.41337435  6.16931785
   0.90148735  2.65743085  0.90148735
   4.41337435  2.65743085  0.90148735
   0.90148735  6.16931785  0.90148735
   4.41337435  6.16931785  0.90148735
   0.90148735  2.65743085  4.41337435
   4.41337435  2.65743085  4.41337435
   0.90148735  6.16931785  4.41337435
   4.41337435  6.16931785  4.41337435
 


--------------------------------------------------------------------------------------------------------


 k-point  1 :   0.0000 0.0000 0.0000  plane waves:    6355
 k-point  2 :   0.5000 0.0000 0.0000  plane waves:    6302
 k-point  3 :   0.5000 0.5000 0.0000  plane waves:    6256
 k-point  4 :   0.5000 0.5000 0.5000  plane waves:    6272

 maximum and minimum number of plane-waves per node :      6355     6256

 maximum number of plane-waves:      6355
 maximum index in each direction: 
   IXMAX=   11   IYMAX=   11   IZMAX=   11
   IXMIN=  -11   IYMIN=  -11   IZMIN=  -11


 serial   3D FFT for wavefunctions
 parallel 3D FFT for charge:
    minimum data exchange during FFTs selected (reduces bandwidth)


 total amount of memory used by VASP MPI-rank0    71562. kBytes
=======================================================================

   base      :      30000. kBytes
   nonl-proj :       8151. kBytes
   fftplans  :       8604. kBytes
   grid      :      12966. kBytes
   one-center:        393. kBytes
   wavefun   :      11448. kBytes
 
     INWAV:  cpu time    0.0001: real time    0.0005
 Broyden mixing: mesh for mixing (old mesh)
   NGX = 23   NGY = 23   NGZ = 23
  (NGX  = 96   NGY  = 96   NGZ  = 96)
  gives a total of  12167 points

 charge density for first step will be calculated from the start-wavefunctions


--------------------------------------------------------------------------------------------------------


 Maximum index for augmentation-charges          1891 (set IRDMAX)


--------------------------------------------------------------------------------------------------------


 initial charge from wavefunction
 First call to EWALD:  gamma=   0.252
 Maximum number of real-space cells 3x 3x 3
 Maximum number of reciprocal cells 3x 3x 3

    FEWALD:  cpu time    0.0022: real time    0.0022


--------------------------------------- Iteration      1(   1)  ---------------------------------------


    POTLOK:  cpu time    0.0789: real time    0.0823
    SETDIJ:  cpu time    0.0340: real time    0.0340
     EDDAV:  cpu time    1.9429: real time    1.9456
 BZINTS: Fermi energy: 14.937534;256.000000 electrons
         Band energy:  22.622654;  BLOECHL correction:  0.000000
       DOS:  cpu time    0.0005: real time    0.0005
    --------------------------------------------
      LOOP:  cpu time    2.0564: real time    2.0624

 eigenvalue-minimisations  :  3344
 total energy-change (2. order) :-0.7700801E+02  (-0.1206421E+05)
 number of electron     256.0000000 magnetization       0.0000000
 augmentation part       -1.4203037 magnetization      -0.0219231

 Free energy of the ion-electron system (eV)
  ---------------------------------------------------
  alpha Z        PSCENC =       963.16403000
  Ewald energy   TEWEN  =    -11308.79344309
  -Hartree energ DENC   =        -0.53206159
  -exchange      EXHF   =         0.00000000
  -V(xc)+E(xc)   XCENC  =       871.72246187
  PAW double counting   =       908.24093829     -949.57491973
  entropy T*S    EENTRO =         0.00000000
  eigenvalues    EBANDS =        22.62265410
  atomic energy  EATOM  =      9416.14232778
  Solvation  Ediel_sol  =         0.00000000
  ---------------------------------------------------
  free energy    TOTEN  =       -77.00801235 eV

  energy without entropy =      -77.00801235  energy(sigma->0) =      -77.00801235


--------------------------------------------------------------------------------------------------------




--------------------------------------- Iteration      1(   2)  ---------------------------------------


     EDDAV:  cpu time    2.2110: real time    2.2142
 BZINTS: Fermi energy:  3.209834;256.000000 electrons
         Band energy:***********;  BLOECHL correction:  0.000000
       DOS:  cpu time    0.0009: real time    0.0009
    --------------------------------------------
      LOOP:  cpu time    2.2119: real time    2.2151

 eigenvalue-minimisations  :  4000
 total energy-change (2. order) :-0.1206402E+04  (-0.1154464E+04)
 number of electron     256.0000000 magnetization       0.0000000
 augmentation part       -1.4203037 magnetization      -0.0219231

 Free energy of the ion-electron system (eV)
  ---------------------------------------------------
  alpha Z        PSCENC =       963.16403000
  Ewald energy   TEWEN  =    -11308.79344309
  -Hartree energ DENC   =        -0.53206159
  -exchange      EXHF   =         0.00000000
  -V(xc)+E(xc)   XCENC  =       871.72246187
  PAW double counting   =       908.24093829     -949.57491973
  entropy T*S    EENTRO =         0.00000000
  eigenvalues    EBANDS =     -1183.77949663
  atomic energy  EATOM  =      9416.14232778
  Solvation  Ediel_sol  =         0.00000000
  ---------------------------------------------------
  free energy    TOTEN  =     -1283.41016308 eV

  energy without entropy =    -1283.41016308  energy(sigma->0) =    -1283.41016308


--------------------------------------------------------------------------------------------------------




--------------------------------------- Iteration      1(   3)  ---------------------------------------


     EDDAV:  cpu time    2.4276: real time    2.4303
 BZINTS: Fermi energy:  2.603325;256.000000 electrons
         Band energy:***********;  BLOECHL correction:  0.000000
       DOS:  cpu time    0.0007: real time    0.0007
    --------------------------------------------
      LOOP:  cpu time    2.4283: real time    2.4310

 eigenvalue-minimisations  :  4464
 total energy-change (2. order) :-0.5303301E+02  (-0.5246093E+02)
 number of electron     256.0000000 magnetization       0.0000000
 augmentation part       -1.4203037 magnetization      -0.0219231

 Free energy of the ion-electron system (eV)
  ---------------------------------------------------
  alpha Z        PSCENC =       963.16403000
  Ewald energy   TEWEN  =    -11308.79344309
  -Hartree energ DENC   =        -0.53206159
  -exchange      EXHF   =         0.00000000
  -V(xc)+E(xc)   XCENC  =       871.72246187
  PAW double counting   =       908.24093829     -949.57491973
  entropy T*S    EENTRO =         0.00000000
  eigenvalues    EBANDS =     -1236.81250744
  atomic energy  EATOM  =      9416.14232778
  Solvation  Ediel_sol  =         0.00000000
  ---------------------------------------------------
  free energy    TOTEN  =     -1336.44317390 eV

  energy without entropy =    -1336.44317390  energy(sigma->0) =    -1336.44317390


--------------------------------------------------------------------------------------------------------




--------------------------------------- Iteration      1(   4)  ---------------------------------------


     EDDAV:  cpu time    2.4270: real time    2.4297
 BZINTS: Fermi energy:  2.580630;256.000000 electrons
         Band energy:***********;  BLOECHL correction:  0.000000
       DOS:  cpu time    0.0008: real time    0.0008
    --------------------------------------------
      LOOP:  cpu time    2.4279: real time    2.4305

 eigenvalue-minimisations  :  4512
 total energy-change (2. order) :-0.1066762E+01  (-0.1063244E+01)
 number of electron     256.0000000 magnetization       0.0000000
 augmentation part       -1.4203037 magnetization      -0.0219231

 Free energy of the ion-electron system (eV)
  ---------------------------------------------------
  alpha Z        PSCENC =       963.16403000
  Ewald energy   TEWEN  =    -11308.79344309
  -Hartree energ DENC   =        -0.53206159
  -exchange      EXHF   =         0.00000000
  -V(xc)+E(xc)   XCENC  =       871.72246187
  PAW double counting   =       908.24093829     -949.57491973
  entropy T*S    EENTRO =         0.00000000
  eigenvalues    EBANDS =     -1237.87926949
  atomic energy  EATOM  =      9416.14232778
  Solvation  Ediel_sol  =         0.00000000
  ---------------------------------------------------
  free energy    TOTEN  =     -1337.50993595 eV

  energy without entropy =    -1337.50993595  energy(sigma->0) =    -1337.50993595


--------------------------------------------------------------------------------------------------------




--------------------------------------- Iteration      1(   5)  ---------------------------------------


     EDDAV:  cpu time    2.4217: real time    2.4256
 BZINTS: Fermi energy:  2.536740;256.000000 electrons
         Band energy:***********;  BLOECHL correction:  0.000000
       DOS:  cpu time    0.0007: real time    0.0007
    CHARGE:  cpu time    0.1521: real time    0.1521
    MIXING:  cpu time    0.0013: real time    0.0013
    --------------------------------------------
      LOOP:  cpu time    2.5758: real time    2.5797

 eigenvalue-minimisations  :  4432
 total energy-change (2. order) :-0.3243870E-01  (-0.3241047E-01)
 number of electron     255.9999997 magnetization       0.0000000
 augmentation part        7.9545397 magnetization      -0.0006642

 Broyden mixing:
  rms(total) = 0.12748E+02    rms(broyden)= 0.12738E+02
  rms(prec ) = 0.19943E+02
  weight for this iteration     100.00

 Free energy of the ion-electron system (eV)
  ---------------------------------------------------
  alpha Z        PSCENC =       963.16403000
  Ewald energy   TEWEN  =    -11308.79344309
  -Hartree energ DENC   =        -0.53206159
  -exchange      EXHF   =         0.00000000
  -V(xc)+E(xc)   XCENC  =       871.72246187
  PAW double counting   =       908.24093829     -949.57491973
  entropy T*S    EENTRO =         0.00000000
  eigenvalues    EBANDS =     -1237.91170819
  atomic energy  EATOM  =      9416.14232778
  Solvation  Ediel_sol  =         0.00000000
  ---------------------------------------------------
  free energy    TOTEN  =     -1337.54237465 eV

  energy without entropy =    -1337.54237465  energy(sigma->0) =    -1337.54237465


--------------------------------------------------------------------------------------------------------




--------------------------------------- Iteration      1(   6)  ---------------------------------------


    POTLOK:  cpu time    0.0608: real time    0.0612
    SETDIJ:  cpu time    0.0340: real time    0.0340
    EDDIAG:  cpu time    0.3766: real time    0.3767
  RMM-DIIS:  cpu time    1.2901: real time    1.2903
    ORTHCH:  cpu time    0.0699: real time    0.0699
 BZINTS: Fermi energy:  6.355254;256.000000 electrons
         Band energy:-499.581044;  BLOECHL correction:  0.000000
       DOS:  cpu time    0.0009: real time    0.0009
    CHARGE:  cpu time    0.1502: real time    0.1502
    MIXING:  cpu time    0.0012: real time    0.0012
    --------------------------------------------
      LOOP:  cpu time    1.9837: real time    1.9844

 eigenvalue-minimisations  :  3328
 total energy-change (2. order) : 0.5580681E+03  (-0.3399022E+02)
 number of electron     255.9999998 magnetization      -0.0000000
 augmentation part        7.3197209 magnetization      -0.0003032

 Broyden mixing:
  rms(total) = 0.67821E+01    rms(broyden)= 0.67821E+01
  rms(prec ) = 0.10730E+02
  weight for this iteration     100.00

 eigenvalues of (default mixing * dielectric matrix)
  average eigenvalue GAMMA=   2.0962
  2.0962

 Free energy of the ion-electron system (eV)
  ---------------------------------------------------
  alpha Z        PSCENC =       963.16403000
  Ewald energy   TEWEN  =    -11308.79344309
  -Hartree energ DENC   =      -171.89378121
  -exchange      EXHF   =         0.00000000
  -V(xc)+E(xc)   XCENC  =       889.84744224
  PAW double counting   =      2268.37088768    -2336.73071421
  entropy T*S    EENTRO =         0.00000000
  eigenvalues    EBANDS =      -499.58104396
  atomic energy  EATOM  =      9416.14232778
  Solvation  Ediel_sol  =         0.00000000
  ---------------------------------------------------
  free energy    TOTEN  =      -779.47429477 eV

  energy without entropy =     -779.47429477  energy(sigma->0) =     -779.47429477


--------------------------------------------------------------------------------------------------------




--------------------------------------- Iteration      1(   7)  ---------------------------------------


    POTLOK:  cpu time    0.0559: real time    0.0586
    SETDIJ:  cpu time    0.0325: real time    0.0325
    EDDIAG:  cpu time    0.3933: real time    0.3933
  RMM-DIIS:  cpu time    1.2944: real time    1.2947
    ORTHCH:  cpu time    0.0697: real time    0.0697
 BZINTS: Fermi energy: 10.618678;256.000000 electrons
         Band energy: 318.289765;  BLOECHL correction:  0.000000
       DOS:  cpu time    0.0007: real time    0.0007
    CHARGE:  cpu time    0.1517: real time    0.1517
    MIXING:  cpu time    0.0013: real time    0.0013
    --------------------------------------------
      LOOP:  cpu time    1.9996: real time    2.0026

 eigenvalue-minimisations  :  3328
 total energy-change (2. order) : 0.2000571E+03  (-0.4915243E+02)
 number of electron     255.9999998 magnetization       0.0000000
 augmentation part        6.4129361 magnetization      -0.0006880

 Broyden mixing:
  rms(total) = 0.82728E+00    rms(broyden)= 0.82005E+00
  rms(prec ) = 0.10116E+01
  weight for this iteration     100.00

 eigenvalues of (default mixing * dielectric matrix)
  average eigenvalue GAMMA=   2.1009
  2.1009  2.1009

 Free energy of the ion-electron system (eV)
  ---------------------------------------------------
  alpha Z        PSCENC =       963.16403000
  Ewald energy   TEWEN  =    -11308.79344309
  -Hartree energ DENC   =      -831.45115544
  -exchange      EXHF   =         0.00000000
  -V(xc)+E(xc)   XCENC  =       953.17717529
  PAW double counting   =      4585.69990224    -4675.64575899
  entropy T*S    EENTRO =         0.00000000
  eigenvalues    EBANDS =       318.28976456
  atomic energy  EATOM  =      9416.14232778
  Solvation  Ediel_sol  =         0.00000000
  ---------------------------------------------------
  free energy    TOTEN  =      -579.41715764 eV

  energy without entropy =     -579.41715764  energy(sigma->0) =     -579.41715764


--------------------------------------------------------------------------------------------------------




--------------------------------------- Iteration      1(   8)  ---------------------------------------


    POTLOK:  cpu time    0.0581: real time    0.0587
    SETDIJ:  cpu time    0.0332: real time    0.0332
    EDDIAG:  cpu time    0.3761: real time    0.3761
  RMM-DIIS:  cpu time    1.2924: real time    1.2926
    ORTHCH:  cpu time    0.0688: real time    0.0689
 BZINTS: Fermi energy: 10.397941;256.000000 electrons
         Band energy: 273.793773;  BLOECHL correction:  0.000000
       DOS:  cpu time    0.0008: real time    0.0008
    CHARGE:  cpu time    0.1528: real time    0.1528
    MIXING:  cpu time    0.0012: real time    0.0012
    --------------------------------------------
      LOOP:  cpu time    1.9836: real time    1.9845

 eigenvalue-minimisations  :  3328
 total energy-change (2. order) :-0.1011000E+01  (-0.2670325E+00)
 number of electron     255.9999998 magnetization      -0.0000000
 augmentation part        6.3266431 magnetization       0.0016124

 Broyden mixing:
  rms(total) = 0.25202E+00    rms(broyden)= 0.25121E+00
  rms(prec ) = 0.38615E+00
  weight for this iteration     100.00

 eigenvalues of (default mixing * dielectric matrix)
  average eigenvalue GAMMA=   1.8498
  0.8785  2.3355  2.3355

 Free energy of the ion-electron system (eV)
  ---------------------------------------------------
  alpha Z        PSCENC =       963.16403000
  Ewald energy   TEWEN  =    -11308.79344309
  -Hartree energ DENC   =      -791.43990542
  -exchange      EXHF   =         0.00000000
  -V(xc)+E(xc)   XCENC  =       949.34341272
  PAW double counting   =      4344.46921675    -4427.10756958
  entropy T*S    EENTRO =         0.00000000
  eigenvalues    EBANDS =       273.79377275
  atomic energy  EATOM  =      9416.14232778
  Solvation  Ediel_sol  =         0.00000000
  ---------------------------------------------------
  free energy    TOTEN  =      -580.42815809 eV

  energy without entropy =     -580.42815809  energy(sigma->0) =     -580.42815809


--------------------------------------------------------------------------------------------------------




--------------------------------------- Iteration      1(   9)  ---------------------------------------


    POTLOK:  cpu time    0.0588: real time    0.0594
    SETDIJ:  cpu time    0.0329: real time    0.0329
    EDDIAG:  cpu time    0.3712: real time    0.3712
  RMM-DIIS:  cpu time    1.2932: real time    1.2934
    ORTHCH:  cpu time    0.0692: real time    0.0692
 BZINTS: Fermi energy: 10.484977;256.000000 electrons
         Band energy: 298.718370;  BLOECHL correction:  0.000000
       DOS:  cpu time    0.0008: real time    0.0008
    CHARGE:  cpu time    0.1523: real time    0.1523
    MIXING:  cpu time    0.0014: real time    0.0014
    --------------------------------------------
      LOOP:  cpu time    1.9798: real time    1.9806

 eigenvalue-minimisations  :  3328
 total energy-change (2. order) :-0.1305101E+00  (-0.4411353E-01)
 number of electron     255.9999998 magnetization       0.0000000
 augmentation part        6.3078435 magnetization      -0.0008669

 Broyden mixing:
  rms(total) = 0.37126E-01    rms(broyden)= 0.36651E-01
  rms(prec ) = 0.50117E-01
  weight for this iteration     100.00

 eigenvalues of (default mixing * dielectric matrix)
  average eigenvalue GAMMA=   1.7396
  2.9013  2.0073  1.2969  0.7528

 Free energy of the ion-electron system (eV)
  ---------------------------------------------------
  alpha Z        PSCENC =       963.16403000
  Ewald energy   TEWEN  =    -11308.79344309
  -Hartree energ DENC   =      -820.22686115
  -exchange      EXHF   =         0.00000000
  -V(xc)+E(xc)   XCENC  =       952.05429357
  PAW double counting   =      4401.01971886    -4482.63710450
  entropy T*S    EENTRO =         0.00000000
  eigenvalues    EBANDS =       298.71837035
  atomic energy  EATOM  =      9416.14232778
  Solvation  Ediel_sol  =         0.00000000
  ---------------------------------------------------
  free energy    TOTEN  =      -580.55866817 eV

  energy without entropy =     -580.55866817  energy(sigma->0) =     -580.55866817


--------------------------------------------------------------------------------------------------------




--------------------------------------- Iteration      1(  10)  ---------------------------------------


    POTLOK:  cpu time    0.0596: real time    0.0603
    SETDIJ:  cpu time    0.0329: real time    0.0329
    EDDIAG:  cpu time    0.3772: real time    0.3772
  RMM-DIIS:  cpu time    1.2766: real time    1.2769
    ORTHCH:  cpu time    0.0690: real time    0.0690
 BZINTS: Fermi energy: 10.495320;256.000000 electrons
         Band energy: 303.666520;  BLOECHL correction:  0.000000
       DOS:  cpu time    0.0008: real time    0.0007
    CHARGE:  cpu time    0.1503: real time    0.1503
    MIXING:  cpu time    0.0015: real time    0.0015
    --------------------------------------------
      LOOP:  cpu time    1.9678: real time    1.9688

 eigenvalue-minimisations  :  3328
 total energy-change (2. order) :-0.3922885E-02  (-0.2922534E-02)
 number of electron     255.9999998 magnetization      -0.0000000
 augmentation part        6.2986244 magnetization       0.0001028

 Broyden mixing:
  rms(total) = 0.20947E-01    rms(broyden)= 0.20856E-01
  rms(prec ) = 0.28757E-01
  weight for this iteration     100.00

 eigenvalues of (default mixing * dielectric matrix)
  average eigenvalue GAMMA=   1.6608
  3.0065  1.8925  1.8925  0.7975  0.7151

 Free energy of the ion-electron system (eV)
  ---------------------------------------------------
  alpha Z        PSCENC =       963.16403000
  Ewald energy   TEWEN  =    -11308.79344309
  -Hartree energ DENC   =      -825.50118361
  -exchange      EXHF   =         0.00000000
  -V(xc)+E(xc)   XCENC  =       952.54638637
  PAW double counting   =      4418.27533397    -4500.06256281
  entropy T*S    EENTRO =         0.00000000
  eigenvalues    EBANDS =       303.66652033
  atomic energy  EATOM  =      9416.14232778
  Solvation  Ediel_sol  =         0.00000000
  ---------------------------------------------------
  free energy    TOTEN  =      -580.56259106 eV

  energy without entropy =     -580.56259106  energy(sigma->0) =     -580.56259106


--------------------------------------------------------------------------------------------------------




--------------------------------------- Iteration      1(  11)  ---------------------------------------


    POTLOK:  cpu time    0.0581: real time    0.0606
    SETDIJ:  cpu time    0.0346: real time    0.0346
    EDDIAG:  cpu time    0.3780: real time    0.3782
  RMM-DIIS:  cpu time    1.2709: real time    1.2712
    ORTHCH:  cpu time    0.0682: real time    0.0682
 BZINTS: Fermi energy: 10.490085;256.000000 electrons
         Band energy: 303.587777;  BLOECHL correction:  0.000000
       DOS:  cpu time    0.0008: real time    0.0008
    CHARGE:  cpu time    0.1531: real time    0.1531
    MIXING:  cpu time    0.0015: real time    0.0015
    --------------------------------------------
      LOOP:  cpu time    1.9653: real time    1.9682

 eigenvalue-minimisations  :  3328
 total energy-change (2. order) :-0.2719976E-03  (-0.1148899E-03)
 number of electron     255.9999998 magnetization      -0.0000000
 augmentation part        6.2967248 magnetization      -0.0000825

 Broyden mixing:
  rms(total) = 0.13807E-01    rms(broyden)= 0.13797E-01
  rms(prec ) = 0.21456E-01
  weight for this iteration     100.00

 eigenvalues of (default mixing * dielectric matrix)
  average eigenvalue GAMMA=   1.6092
  2.9624  2.1443  2.1443  0.8630  0.8630  0.6780

 Free energy of the ion-electron system (eV)
  ---------------------------------------------------
  alpha Z        PSCENC =       963.16403000
  Ewald energy   TEWEN  =    -11308.79344309
  -Hartree energ DENC   =      -825.22015692
  -exchange      EXHF   =         0.00000000
  -V(xc)+E(xc)   XCENC  =       952.51530497
  PAW double counting   =      4421.87012785    -4503.82883047
  entropy T*S    EENTRO =         0.00000000
  eigenvalues    EBANDS =       303.58777681
  atomic energy  EATOM  =      9416.14232778
  Solvation  Ediel_sol  =         0.00000000
  ---------------------------------------------------
  free energy    TOTEN  =      -580.56286306 eV

  energy without entropy =     -580.56286306  energy(sigma->0) =     -580.56286306


--------------------------------------------------------------------------------------------------------




--------------------------------------- Iteration      1(  12)  ---------------------------------------


    POTLOK:  cpu time    0.0587: real time    0.0597
    SETDIJ:  cpu time    0.0329: real time    0.0329
    EDDIAG:  cpu time    0.3731: real time    0.3733
  RMM-DIIS:  cpu time    1.2765: real time    1.2768
    ORTHCH:  cpu time    0.0690: real time    0.0690
 BZINTS: Fermi energy: 10.478895;256.000000 electrons
         Band energy: 302.087903;  BLOECHL correction:  0.000000
       DOS:  cpu time    0.0008: real time    0.0008
    CHARGE:  cpu time    0.1530: real time    0.1530
    MIXING:  cpu time    0.0016: real time    0.0016
    --------------------------------------------
      LOOP:  cpu time    1.9655: real time    1.9670

 eigenvalue-minimisations  :  3328
 total energy-change (2. order) : 0.3285738E-03  (-0.8612269E-04)
 number of electron     255.9999998 magnetization      -0.0000000
 augmentation part        6.2975122 magnetization       0.0000193

 Broyden mixing:
  rms(total) = 0.19041E-02    rms(broyden)= 0.19036E-02
  rms(prec ) = 0.28265E-02
  weight for this iteration     100.00

 eigenvalues of (default mixing * dielectric matrix)
  average eigenvalue GAMMA=   1.5453
  2.7204  2.7204  2.0487  1.1203  0.8451  0.7247  0.6376

 Free energy of the ion-electron system (eV)
  ---------------------------------------------------
  alpha Z        PSCENC =       963.16403000
  Ewald energy   TEWEN  =    -11308.79344309
  -Hartree energ DENC   =      -823.55194822
  -exchange      EXHF   =         0.00000000
  -V(xc)+E(xc)   XCENC  =       952.35698736
  PAW double counting   =      4418.19043953    -4500.15883083
  entropy T*S    EENTRO =         0.00000000
  eigenvalues    EBANDS =       302.08790298
  atomic energy  EATOM  =      9416.14232778
  Solvation  Ediel_sol  =         0.00000000
  ---------------------------------------------------
  free energy    TOTEN  =      -580.56253448 eV

  energy without entropy =     -580.56253448  energy(sigma->0) =     -580.56253448


--------------------------------------------------------------------------------------------------------




--------------------------------------- Iteration      1(  13)  ---------------------------------------


    POTLOK:  cpu time    0.0570: real time    0.0589
    SETDIJ:  cpu time    0.0336: real time    0.0336
    EDDIAG:  cpu time    0.3745: real time    0.3745
  RMM-DIIS:  cpu time    1.2840: real time    1.2842
    ORTHCH:  cpu time    0.0690: real time    0.0690
 BZINTS: Fermi energy: 10.474986;256.000000 electrons
         Band energy: 301.876601;  BLOECHL correction:  0.000000
       DOS:  cpu time    0.0008: real time    0.0008
    CHARGE:  cpu time    0.1508: real time    0.1508
    MIXING:  cpu time    0.0018: real time    0.0018
    --------------------------------------------
      LOOP:  cpu time    1.9715: real time    1.9736

 eigenvalue-minimisations  :  3328
 total energy-change (2. order) : 0.4455474E-05  (-0.4114773E-05)
 number of electron     255.9999998 magnetization      -0.0000000
 augmentation part        6.2978191 magnetization      -0.0000060

 Broyden mixing:
  rms(total) = 0.25639E-03    rms(broyden)= 0.25134E-03
  rms(prec ) = 0.28022E-03
  weight for this iteration     100.00

 eigenvalues of (default mixing * dielectric matrix)
  average eigenvalue GAMMA=   1.4768
  2.7176  2.7176  2.0175  1.3333  0.8442  0.8442  0.7053  0.6345

 Free energy of the ion-electron system (eV)
  ---------------------------------------------------
  alpha Z        PSCENC =       963.16403000
  Ewald energy   TEWEN  =    -11308.79344309
  -Hartree energ DENC   =      -823.32746181
  -exchange      EXHF   =         0.00000000
  -V(xc)+E(xc)   XCENC  =       952.33593973
  PAW double counting   =      4417.51506588    -4499.47558923
  entropy T*S    EENTRO =         0.00000000
  eigenvalues    EBANDS =       301.87660071
  atomic energy  EATOM  =      9416.14232778
  Solvation  Ediel_sol  =         0.00000000
  ---------------------------------------------------
  free energy    TOTEN  =      -580.56253003 eV

  energy without entropy =     -580.56253003  energy(sigma->0) =     -580.56253003


--------------------------------------------------------------------------------------------------------




--------------------------------------- Iteration      1(  14)  ---------------------------------------


    POTLOK:  cpu time    0.0590: real time    0.0597
    SETDIJ:  cpu time    0.0344: real time    0.0344
    EDDIAG:  cpu time    0.3744: real time    0.3744
  RMM-DIIS:  cpu time    0.9650: real time    0.9652
    ORTHCH:  cpu time    0.0684: real time    0.0684
 BZINTS: Fermi energy: 10.472407;256.000000 electrons
         Band energy: 301.855529;  BLOECHL correction:  0.000000
       DOS:  cpu time    0.0007: real time    0.0007
    --------------------------------------------
      LOOP:  cpu time    1.5020: real time    1.5029

 eigenvalue-minimisations  :  2304
 total energy-change (2. order) : 0.4073411E-07  (-0.1054694E-06)
 number of electron     255.9999998 magnetization      -0.0000000
 augmentation part        6.2978191 magnetization      -0.0000060

 Free energy of the ion-electron system (eV)
  ---------------------------------------------------
  alpha Z        PSCENC =       963.16403000
  Ewald energy   TEWEN  =    -11308.79344309
  -Hartree energ DENC   =      -823.30686198
  -exchange      EXHF   =         0.00000000
  -V(xc)+E(xc)   XCENC  =       952.33408480
  PAW double counting   =      4417.45927343    -4499.41747025
  entropy T*S    EENTRO =         0.00000000
  eigenvalues    EBANDS =       301.85552933
  atomic energy  EATOM  =      9416.14232778
  Solvation  Ediel_sol  =         0.00000000
  ---------------------------------------------------
  free energy    TOTEN  =      -580.56252999 eV

  energy without entropy =     -580.56252999  energy(sigma->0) =     -580.56252999


--------------------------------------------------------------------------------------------------------




 average (electrostatic) potential at core
  the test charge radii are     0.6991
  (the norm of the test charge is              1.0000)
       1 -44.6933       2 -44.6933       3 -44.6933       4 -44.6933       5 -44.6933
       6 -44.6933       7 -44.6933       8 -44.6933       9 -44.6930      10 -44.6930
      11 -44.6930      12 -44.6930      13 -44.6930      14 -44.6930      15 -44.6930
      16 -44.6930      17 -44.6930      18 -44.6930      19 -44.6930      20 -44.6930
      21 -44.6930      22 -44.6930      23 -44.6930      24 -44.6930      25 -44.6930
      26 -44.6930      27 -44.6930      28 -44.6930      29 -44.6930      30 -44.6930
      31 -44.6930      32 -44.6930      33 -44.6930      34 -44.6930      35 -44.6930
      36 -44.6930      37 -44.6930      38 -44.6930      39 -44.6930      40 -44.6930
      41 -44.6930      42 -44.6930      43 -44.6930      44 -44.6930      45 -44.6930
      46 -44.6930      47 -44.6930      48 -44.6930      49 -44.6930      50 -44.6930
      51 -44.6930      52 -44.6930      53 -44.6930      54 -44.6930      55 -44.6930
      56 -44.6930      57 -44.6930      58 -44.6930      59 -44.6930      60 -44.6930
      61 -44.6930      62 -44.6930      63 -44.6930      64 -44.6930
 
 
 
 E-fermi :  10.4724     XC(G=0): -13.4570     alpha+bet :-18.5421


 spin component 1

 k-point     1 :       0.0000    0.0000    0.0000
  band No.  band energies     occupation 
      1     -11.6704      1.00000
      2      -9.3114      1.00000
      3      -9.3114      1.00000
      4      -9.3114      1.00000
      5      -9.3113      1.00000
      6      -9.3113      1.00000
      7      -9.3113      1.00000
      8      -7.0476      1.00000
      9      -7.0476      1.00000
     10      -7.0476      1.00000
     11      -7.0474      1.00000
     12      -7.0474      1.00000
     13      -7.0474      1.00000
     14      -7.0474      1.00000
     15      -7.0474      1.00000
     16      -7.0474      1.00000
     17      -7.0474      1.00000
     18      -7.0474      1.00000
     19      -7.0474      1.00000
     20      -5.6242      1.00000
     21      -5.6240      1.00000
     22      -5.6240      1.00000
     23      -5.6240      1.00000
     24      -3.4565      1.00000
     25      -3.4565      1.00000
     26      -3.4565      1.00000
     27      -3.4564      1.00000
     28      -2.6582      1.00000
     29      -2.6581      1.00000
     30      -2.6581      1.00000
     31      -2.6581      1.00000
     32      -2.6580      1.00000
     33      -2.6580      1.00000
     34      -1.7899      1.00000
     35      -1.7899      1.00000
     36      -1.7899      1.00000
     37      -1.7899      1.00000
     38      -1.7899      1.00000
     39      -1.7899      1.00000
     40      -1.7898      1.00000
     41      -1.7898      1.00000
     42      -1.7898      1.00000
     43      -1.7898      1.00000
     44      -1.7898      1.00000
     45      -1.7898      1.00000
     46       1.5050      1.00000
     47       1.5050      1.00000
     48       1.5050      1.00000
     49       1.5050      1.00000
     50       1.5050      1.00000
     51       1.5050      1.00000
     52       1.5051      1.00000
     53       1.5051      1.00000
     54       1.5051      1.00000
     55       1.5051      1.00000
     56       1.5051      1.00000
     57       1.5051      1.00000
     58       1.7120      1.00000
     59       1.7120      1.00000
     60       1.7120      1.00000
     61       1.7120      1.00000
     62       1.7120      1.00000
     63       1.7120      1.00000
     64       1.7120      1.00000
     65       1.7120      1.00000
     66       1.7120      1.00000
     67       1.7120      1.00000
     68       1.7120      1.00000
     69       1.7120      1.00000
     70       2.5098      1.00000
     71       2.5098      1.00000
     72       2.5098      1.00000
     73       2.5098      1.00000
     74       2.5098      1.00000
     75       2.5098      1.00000
     76       2.5098      1.00000
     77       2.5098      1.00000
     78       2.5098      1.00000
     79       2.5098      1.00000
     80       2.5098      1.00000
     81       2.5098      1.00000
     82       3.8609      1.00000
     83       3.8609      1.00000
     84       3.8609      1.00000
     85       3.8609      1.00000
     86       3.8610      1.00000
     87       3.8610      1.00000
     88       5.8684      1.00000
     89       5.8684      1.00000
     90       5.8684      1.00000
     91       5.8685      1.00000
     92       5.8685      1.00000
     93       5.8685      1.00000
     94       6.1246      1.00000
     95       6.1246      1.00000
     96       6.1246      1.00000
     97       6.1246      1.00000
     98       6.1246      1.00000
     99       6.1246      1.00000
    100       6.1247      1.00000
    101       6.1247      1.00000
    102       6.1247      1.00000
    103       6.1247      1.00000
    104       6.1247      1.00000
    105       6.1247      1.00000
    106       7.3002      1.00000
    107       7.3002      1.00000
    108       7.3002      1.00000
    109       7.3002      1.00000
    110       7.3002      1.00000
    111       7.3002      1.00000
    112       7.3003      1.00000
    113       7.3003      1.00000
    114       7.3003      1.00000
    115       7.3004      1.00000
    116       7.3004      1.00000
    117       7.3004      1.00000
    118       7.5246      1.00000
    119       7.5246      1.00000
    120       7.5247      1.00000
    121       7.5247      1.00000
    122       7.5247      1.00000
    123       7.5247      1.00000
    124       7.5248      1.00000
    125       7.5248      1.00000
    126      10.4592      1.00000
    127      10.4592      1.00000
    128      10.4593      1.00000
    129      15.0068      0.00000
    130      15.0068      0.00000
    131      15.0068      0.00000
    132      15.0068      0.00000
    133      15.0068      0.00000
    134      15.0068      0.00000
    135      15.3035      0.00000
    136      15.3035      0.00000
    137      15.3035      0.00000
    138      15.3035      0.00000
    139      15.3035      0.00000
    140      15.3036      0.00000
    141      16.1762      0.00000
    142      16.1763      0.00000
    143      16.1763      0.00000
    144      18.6178      0.00000
    145      18.6178      0.00000
    146      18.6178      0.00000
    147      18.6179      0.00000
    148      18.6179      0.00000
    149      18.6179      0.00000
    150      18.6179      0.00000
    151      18.6179      0.00000
    152      18.6179      0.00000
    153      18.6179      0.00000
    154      18.6179      0.00000
    155      18.6179      0.00000
    156      19.1030      0.00000
    157      19.1030      0.00000
    158      19.1031      0.00000
    159      19.1031      0.00000
    160      19.1031      0.00000
    161      19.1032      0.00000
    162      19.1032      0.00000
    163      19.1032      0.00000
    164      19.9263      0.00000
    165      19.9263      0.00000
    166      19.9263      0.00000
    167      19.9264      0.00000
    168      20.8038      0.00000
    169      20.8038      0.00000
    170      20.8039      0.00000
    171      20.8039      0.00000
    172      20.8039      0.00000
    173      20.8039      0.00000
    174      20.8040      0.00000
    175      20.8040      0.00000
    176      20.8041      0.00000
    177      20.8043      0.00000
    178      20.8044      0.00000
    179      20.8047      0.00000
    180      21.1258      0.00000
    181      21.1763      0.00000
    182      21.2471      0.00000
    183      21.2581      0.00000
    184      21.2874      0.00000
    185      21.3105      0.00000
    186      21.3591      0.00000
    187      21.3715      0.00000
    188      22.2680      0.00000
    189      22.4518      0.00000
    190      22.4649      0.00000
    191      22.4852      0.00000
    192      22.4895      0.00000
    193      22.4932      0.00000
    194      22.4956      0.00000
    195      22.5013      0.00000
    196      22.4999      0.00000
    197      22.5042      0.00000
    198      22.5186      0.00000
    199      22.5280      0.00000
    200      22.5462      0.00000
    201      22.8286      0.00000
    202      22.9465      0.00000
    203      22.9892      0.00000
    204      23.0935      0.00000
    205      23.2034      0.00000
    206      23.2402      0.00000
    207      23.2846      0.00000
    208      23.3407      0.00000

 k-point     2 :       0.5000    0.0000    0.0000
  band No.  band energies     occupation 
      1     -11.0759      1.00000
      2     -11.0759      1.00000
      3      -8.7354      1.00000
      4      -8.7354      1.00000
      5      -8.7354      1.00000
      6      -8.7354      1.00000
      7      -8.7353      1.00000
      8      -8.7353      1.00000
      9      -8.7353      1.00000
     10      -8.7353      1.00000
     11      -6.5366      1.00000
     12      -6.5366      1.00000
     13      -6.5365      1.00000
     14      -6.5365      1.00000
     15      -6.5365      1.00000
     16      -6.5365      1.00000
     17      -6.5364      1.00000
     18      -6.5364      1.00000
     19      -6.4476      1.00000
     20      -6.4476      1.00000
     21      -4.4424      1.00000
     22      -4.4424      1.00000
     23      -4.4424      1.00000
     24      -4.4424      1.00000
     25      -4.4423      1.00000
     26      -4.4423      1.00000
     27      -4.4423      1.00000
     28      -4.4423      1.00000
     29      -2.2935      1.00000
     30      -2.2935      1.00000
     31      -2.2934      1.00000
     32      -2.2934      1.00000
     33      -2.2934      1.00000
     34      -2.2934      1.00000
     35      -2.2933      1.00000
     36      -2.2933      1.00000
     37      -1.5089      1.00000
     38      -1.5089      1.00000
     39      -1.5088      1.00000
     40      -1.5088      1.00000
     41      -1.5088      1.00000
     42      -1.5088      1.00000
     43      -1.5087      1.00000
     44      -1.5087      1.00000
     45      -0.2268      1.00000
     46      -0.2268      1.00000
     47      -0.2268      1.00000
     48      -0.2268      1.00000
     49      -0.2268      1.00000
     50      -0.2268      1.00000
     51      -0.2268      1.00000
     52      -0.2268      1.00000
     53       1.1789      1.00000
     54       1.1789      1.00000
     55       1.1789      1.00000
     56       1.1789      1.00000
     57       1.1789      1.00000
     58       1.1789      1.00000
     59       1.1789      1.00000
     60       1.1789      1.00000
     61       1.6729      1.00000
     62       1.6729      1.00000
     63       2.7895      1.00000
     64       2.7895      1.00000
     65       2.7895      1.00000
     66       2.7895      1.00000
     67       2.7895      1.00000
     68       2.7895      1.00000
     69       2.7895      1.00000
     70       2.7895      1.00000
     71       3.7574      1.00000
     72       3.7574      1.00000
     73       3.7574      1.00000
     74       3.7574      1.00000
     75       3.7574      1.00000
     76       3.7574      1.00000
     77       3.7574      1.00000
     78       3.7574      1.00000
     79       4.4397      1.00000
     80       4.4397      1.00000
     81       4.4397      1.00000
     82       4.4397      1.00000
     83       4.6975      1.00000
     84       4.6975      1.00000
     85       4.6975      1.00000
     86       4.6975      1.00000
     87       4.6976      1.00000
     88       4.6976      1.00000
     89       4.6976      1.00000
     90       4.6976      1.00000
     91       4.7178      1.00000
     92       4.7178      1.00000
     93       4.7178      1.00000
     94       4.7178      1.00000
     95       4.7178      1.00000
     96       4.7178      1.00000
     97       4.7178      1.00000
     98       4.7178      1.00000
     99       5.6894      1.00000
    100       5.6894      1.00000
    101       5.6895      1.00000
    102       5.6895      1.00000
    103       5.6895      1.00000
    104       5.6895      1.00000
    105       5.6896      1.00000
    106       5.6896      1.00000
    107       7.4104      1.00000
    108       7.4104      1.00000
    109       7.4105      1.00000
    110       7.4105      1.00000
    111       7.4105      1.00000
    112       7.4105      1.00000
    113       7.4106      1.00000
    114       7.4106      1.00000
    115       7.4473      1.00000
    116       7.4473      1.00000
    117       7.4473      1.00000
    118       7.4473      1.00000
    119       7.4474      1.00000
    120       7.4474      1.00000
    121       7.4474      1.00000
    122       7.4474      1.00000
    123       8.6365      1.00000
    124       8.6365      1.00000
    125       8.6365      1.00000
    126       8.6365      1.00000
    127       9.1241      1.00000
    128       9.1241      1.00000
    129      14.6803      0.00000
    130      14.6803      0.00000
    131      15.7612      0.00000
    132      15.7612      0.00000
    133      17.2252      0.00000
    134      17.2252      0.00000
    135      17.2252      0.00000
    136      17.2252      0.00000
    137      17.2253      0.00000
    138      17.2253      0.00000
    139      17.2253      0.00000
    140      17.2253      0.00000
    141      17.3027      0.00000
    142      17.3027      0.00000
    143      17.4919      0.00000
    144      17.4919      0.00000
    145      17.4919      0.00000
    146      17.4919      0.00000
    147      17.4919      0.00000
    148      17.4919      0.00000
    149      17.4919      0.00000
    150      17.4919      0.00000
    151      18.5256      0.00000
    152      18.5256      0.00000
    153      18.5256      0.00000
    154      18.5256      0.00000
    155      18.8945      0.00000
    156      18.8945      0.00000
    157      18.8946      0.00000
    158      18.8946      0.00000
    159      18.8946      0.00000
    160      18.8946      0.00000
    161      18.8947      0.00000
    162      18.8948      0.00000
    163      19.0186      0.00000
    164      19.0186      0.00000
    165      19.0186      0.00000
    166      19.0186      0.00000
    167      19.0186      0.00000
    168      19.0186      0.00000
    169      19.0191      0.00000
    170      19.0195      0.00000
    171      19.8840      0.00000
    172      19.8841      0.00000
    173      19.8841      0.00000
    174      19.8841      0.00000
    175      19.8841      0.00000
    176      19.8841      0.00000
    177      19.8846      0.00000
    178      19.8849      0.00000
    179      20.8617      0.00000
    180      20.8618      0.00000
    181      20.8621      0.00000
    182      20.8625      0.00000
    183      20.8627      0.00000
    184      20.8631      0.00000
    185      20.8681      0.00000
    186      20.8736      0.00000
    187      21.2091      0.00000
    188      21.2091      0.00000
    189      21.2091      0.00000
    190      21.2092      0.00000
    191      21.2092      0.00000
    192      21.2097      0.00000
    193      21.2282      0.00000
    194      21.2467      0.00000
    195      21.5909      0.00000
    196      21.5910      0.00000
    197      21.5913      0.00000
    198      21.5916      0.00000
    199      21.5919      0.00000
    200      21.5932      0.00000
    201      21.7571      0.00000
    202      21.8852      0.00000
    203      22.4944      0.00000
    204      22.4944      0.00000
    205      22.4947      0.00000
    206      22.4950      0.00000
    207      22.4955      0.00000
    208      22.4966      0.00000

 k-point     3 :       0.5000    0.5000    0.0000
  band No.  band energies     occupation 
      1     -10.4851      1.00000
      2     -10.4851      1.00000
      3     -10.4851      1.00000
      4     -10.4851      1.00000
      5      -8.1681      1.00000
      6      -8.1681      1.00000
      7      -8.1680      1.00000
      8      -8.1680      1.00000
      9      -8.1679      1.00000
     10      -8.1679      1.00000
     11      -8.1679      1.00000
     12      -8.1679      1.00000
     13      -5.9162      1.00000
     14      -5.9162      1.00000
     15      -5.9162      1.00000
     16      -5.9162      1.00000
     17      -5.9162      1.00000
     18      -5.9162      1.00000
     19      -5.9162      1.00000
     20      -5.9162      1.00000
     21      -4.5860      1.00000
     22      -4.5860      1.00000
     23      -4.5860      1.00000
     24      -4.5860      1.00000
     25      -4.5859      1.00000
     26      -4.5859      1.00000
     27      -4.5859      1.00000
     28      -4.5859      1.00000
     29      -2.8142      1.00000
     30      -2.8142      1.00000
     31      -2.8142      1.00000
     32      -2.8142      1.00000
     33      -2.3866      1.00000
     34      -2.3866      1.00000
     35      -2.3866      1.00000
     36      -2.3866      1.00000
     37      -2.3866      1.00000
     38      -2.3866      1.00000
     39      -2.3865      1.00000
     40      -2.3865      1.00000
     41      -1.6015      1.00000
     42      -1.6015      1.00000
     43      -1.6015      1.00000
     44      -1.6015      1.00000
     45       0.6731      1.00000
     46       0.6731      1.00000
     47       0.6731      1.00000
     48       0.6731      1.00000
     49       1.0228      1.00000
     50       1.0228      1.00000
     51       1.0228      1.00000
     52       1.0228      1.00000
     53       1.0229      1.00000
     54       1.0229      1.00000
     55       1.0229      1.00000
     56       1.0229      1.00000
     57       1.2366      1.00000
     58       1.2366      1.00000
     59       1.2366      1.00000
     60       1.2366      1.00000
     61       1.2366      1.00000
     62       1.2366      1.00000
     63       1.2366      1.00000
     64       1.2366      1.00000
     65       3.1404      1.00000
     66       3.1404      1.00000
     67       3.1404      1.00000
     68       3.1404      1.00000
     69       3.1404      1.00000
     70       3.1404      1.00000
     71       3.1404      1.00000
     72       3.1404      1.00000
     73       3.9167      1.00000
     74       3.9167      1.00000
     75       3.9167      1.00000
     76       3.9167      1.00000
     77       3.9168      1.00000
     78       3.9168      1.00000
     79       3.9169      1.00000
     80       3.9169      1.00000
     81       4.2182      1.00000
     82       4.2182      1.00000
     83       4.2183      1.00000
     84       4.2183      1.00000
     85       4.2183      1.00000
     86       4.2183      1.00000
     87       4.2184      1.00000
     88       4.2184      1.00000
     89       4.8392      1.00000
     90       4.8392      1.00000
     91       4.8392      1.00000
     92       4.8392      1.00000
     93       5.5346      1.00000
     94       5.5346      1.00000
     95       5.5346      1.00000
     96       5.5346      1.00000
     97       5.5346      1.00000
     98       5.5346      1.00000
     99       5.5346      1.00000
    100       5.5346      1.00000
    101       6.3430      1.00000
    102       6.3430      1.00000
    103       6.3431      1.00000
    104       6.3431      1.00000
    105       6.7595      1.00000
    106       6.7595      1.00000
    107       6.7595      1.00000
    108       6.7595      1.00000
    109       6.7596      1.00000
    110       6.7596      1.00000
[...]
      1.779459  3.535399  0.023512    -0.002457    0.003038    0.124939  
      5.291346  3.535399  0.023512    -0.002457    0.003038    0.124939  
      1.779459  0.023512  0.023512    -0.002457    0.003038    0.124939  
      5.291346  0.023512  0.023512    -0.002457    0.003038    0.124939  
      2.657431  0.901487  0.901487    -0.002457    0.003038    0.124939  
      6.169318  0.901487  0.901487    -0.002457    0.003038    0.124939  
      2.657431  4.413374  0.901487    -0.002457    0.003038    0.124939  
      6.169318  4.413374  0.901487    -0.002457    0.003038    0.124939  
      2.657431  0.901487  4.413374    -0.002457    0.003038    0.124939  
      6.169318  0.901487  4.413374    -0.002457    0.003038    0.124939  
      2.657431  4.413374  4.413374    -0.002457    0.003038    0.124939  
      6.169318  4.413374  4.413374    -0.002457    0.003038    0.124939  
      0.901487  0.901487  2.657431    -0.002457    0.003038    0.124939  
      4.413374  0.901487  2.657431    -0.002457    0.003038    0.124939  
      0.901487  4.413374  2.657431    -0.002457    0.003038    0.124939  
      4.413374  4.413374  2.657431    -0.002457    0.003038    0.124939  
      0.901487  0.901487  6.169318    -0.002457    0.003038    0.124939  
      4.413374  0.901487  6.169318    -0.002457    0.003038    0.124939  
      0.901487  4.413374  6.169318    -0.002457    0.003038    0.124939  
      4.413374  4.413374  6.169318    -0.002457    0.003038    0.124939  
      0.901487  2.657431  0.901487    -0.002457    0.003038    0.124939  
      4.413374  2.657431  0.901487    -0.002457    0.003038    0.124939  
      0.901487  6.169318  0.901487    -0.002457    0.003038    0.124939  
      4.413374  6.169318  0.901487    -0.002457    0.003038    0.124939  
      0.901487  2.657431  4.413374    -0.002457    0.003038    0.124939  
      4.413374  2.657431  4.413374    -0.002457    0.003038    0.124939  
      0.901487  6.169318  4.413374    -0.002457    0.003038    0.124939  
      4.413374  6.169318  4.413374    -0.002457    0.003038    0.124939  
 
 191 f  =    0.000005 THz     0.000031 2PiTHz    0.000162 cm-1     0.000020 meV
             X         Y         Z           dx          dy          dz
      2.657431  2.657431  2.657431    -0.097077   -0.078746    0.000006  
      6.169318  2.657431  2.657431    -0.097077   -0.078746    0.000006  
      2.657431  6.169318  2.657431    -0.097077   -0.078746    0.000006  
      6.169318  6.169318  2.657431    -0.097077   -0.078746    0.000006  
      2.657431  2.657431  6.169318    -0.097077   -0.078746    0.000006  
      6.169318  2.657431  6.169318    -0.097077   -0.078746    0.000006  
      2.657431  6.169318  6.169318    -0.097077   -0.078746    0.000006  
      6.169318  6.169318  6.169318    -0.097077   -0.078746    0.000006  
      3.535399  1.779459  3.535399    -0.097077   -0.078746    0.000006  
      0.023512  1.779459  3.535399    -0.097077   -0.078746    0.000006  
      3.535399  5.291346  3.535399    -0.097077   -0.078746    0.000006  
      0.023512  5.291346  3.535399    -0.097077   -0.078746    0.000006  
      3.535399  1.779459  0.023512    -0.097077   -0.078746    0.000006  
      0.023512  1.779459  0.023512    -0.097077   -0.078746    0.000006  
      3.535399  5.291346  0.023512    -0.097077   -0.078746    0.000006  
      0.023512  5.291346  0.023512    -0.097077   -0.078746    0.000006  
      1.779459  1.779459  1.779459    -0.097077   -0.078746    0.000006  
      5.291346  1.779459  1.779459    -0.097077   -0.078746    0.000006  
      1.779459  5.291346  1.779459    -0.097077   -0.078746    0.000006  
      5.291346  5.291346  1.779459    -0.097077   -0.078746    0.000006  
      1.779459  1.779459  5.291346    -0.097077   -0.078746    0.000006  
      5.291346  1.779459  5.291346    -0.097077   -0.078746    0.000006  
      1.779459  5.291346  5.291346    -0.097077   -0.078746    0.000006  
      5.291346  5.291346  5.291346    -0.097077   -0.078746    0.000006  
      3.535399  3.535399  1.779459    -0.097077   -0.078746    0.000006  
      0.023512  3.535399  1.779459    -0.097077   -0.078746    0.000006  
      3.535399  0.023512  1.779459    -0.097077   -0.078746    0.000006  
      0.023512  0.023512  1.779459    -0.097077   -0.078746    0.000006  
      3.535399  3.535399  5.291346    -0.097077   -0.078746    0.000006  
      0.023512  3.535399  5.291346    -0.097077   -0.078746    0.000006  
      3.535399  0.023512  5.291346    -0.097077   -0.078746    0.000006  
      0.023512  0.023512  5.291346    -0.097077   -0.078746    0.000006  
      1.779459  3.535399  3.535399    -0.097077   -0.078746    0.000006  
      5.291346  3.535399  3.535399    -0.097077   -0.078746    0.000006  
      1.779459  0.023512  3.535399    -0.097077   -0.078746    0.000006  
      5.291346  0.023512  3.535399    -0.097077   -0.078746    0.000006  
      1.779459  3.535399  0.023512    -0.097077   -0.078746    0.000006  
      5.291346  3.535399  0.023512    -0.097077   -0.078746    0.000006  
      1.779459  0.023512  0.023512    -0.097077   -0.078746    0.000006  
      5.291346  0.023512  0.023512    -0.097077   -0.078746    0.000006  
      2.657431  0.901487  0.901487    -0.097077   -0.078746    0.000006  
      6.169318  0.901487  0.901487    -0.097077   -0.078746    0.000006  
      2.657431  4.413374  0.901487    -0.097077   -0.078746    0.000006  
      6.169318  4.413374  0.901487    -0.097077   -0.078746    0.000006  
      2.657431  0.901487  4.413374    -0.097077   -0.078746    0.000006  
      6.169318  0.901487  4.413374    -0.097077   -0.078746    0.000006  
      2.657431  4.413374  4.413374    -0.097077   -0.078746    0.000006  
      6.169318  4.413374  4.413374    -0.097077   -0.078746    0.000006  
      0.901487  0.901487  2.657431    -0.097077   -0.078746    0.000006  
      4.413374  0.901487  2.657431    -0.097077   -0.078746    0.000006  
      0.901487  4.413374  2.657431    -0.097077   -0.078746    0.000006  
      4.413374  4.413374  2.657431    -0.097077   -0.078746    0.000006  
      0.901487  0.901487  6.169318    -0.097077   -0.078746    0.000006  
      4.413374  0.901487  6.169318    -0.097077   -0.078746    0.000006  
      0.901487  4.413374  6.169318    -0.097077   -0.078746    0.000006  
      4.413374  4.413374  6.169318    -0.097077   -0.078746    0.000006  
      0.901487  2.657431  0.901487    -0.097077   -0.078746    0.000006  
      4.413374  2.657431  0.901487    -0.097077   -0.078746    0.000006  
      0.901487  6.169318  0.901487    -0.097077   -0.078746    0.000006  
      4.413374  6.169318  0.901487    -0.097077   -0.078746    0.000006  
      0.901487  2.657431  4.413374    -0.097077   -0.078746    0.000006  
      4.413374  2.657431  4.413374    -0.097077   -0.078746    0.000006  
      0.901487  6.169318  4.413374    -0.097077   -0.078746    0.000006  
      4.413374  6.169318  4.413374    -0.097077   -0.078746    0.000006  
 
 192 f  =    0.000005 THz     0.000029 2PiTHz    0.000155 cm-1     0.000019 meV
             X         Y         Z           dx          dy          dz
      2.657431  2.657431  2.657431    -0.078708    0.097030   -0.003907  
      6.169318  2.657431  2.657431    -0.078708    0.097030   -0.003907  
      2.657431  6.169318  2.657431    -0.078708    0.097030   -0.003907  
      6.169318  6.169318  2.657431    -0.078708    0.097030   -0.003907  
      2.657431  2.657431  6.169318    -0.078708    0.097030   -0.003907  
      6.169318  2.657431  6.169318    -0.078708    0.097030   -0.003907  
      2.657431  6.169318  6.169318    -0.078708    0.097030   -0.003907  
      6.169318  6.169318  6.169318    -0.078708    0.097030   -0.003907  
      3.535399  1.779459  3.535399    -0.078708    0.097030   -0.003907  
      0.023512  1.779459  3.535399    -0.078708    0.097030   -0.003907  
      3.535399  5.291346  3.535399    -0.078708    0.097030   -0.003907  
      0.023512  5.291346  3.535399    -0.078708    0.097030   -0.003907  
      3.535399  1.779459  0.023512    -0.078708    0.097030   -0.003907  
      0.023512  1.779459  0.023512    -0.078708    0.097030   -0.003907  
      3.535399  5.291346  0.023512    -0.078708    0.097030   -0.003907  
      0.023512  5.291346  0.023512    -0.078708    0.097030   -0.003907  
      1.779459  1.779459  1.779459    -0.078708    0.097030   -0.003907  
      5.291346  1.779459  1.779459    -0.078708    0.097030   -0.003907  
      1.779459  5.291346  1.779459    -0.078708    0.097030   -0.003907  
      5.291346  5.291346  1.779459    -0.078708    0.097030   -0.003907  
      1.779459  1.779459  5.291346    -0.078708    0.097030   -0.003907  
      5.291346  1.779459  5.291346    -0.078708    0.097030   -0.003907  
      1.779459  5.291346  5.291346    -0.078708    0.097030   -0.003907  
      5.291346  5.291346  5.291346    -0.078708    0.097030   -0.003907  
      3.535399  3.535399  1.779459    -0.078708    0.097030   -0.003907  
      0.023512  3.535399  1.779459    -0.078708    0.097030   -0.003907  
      3.535399  0.023512  1.779459    -0.078708    0.097030   -0.003907  
      0.023512  0.023512  1.779459    -0.078708    0.097030   -0.003907  
      3.535399  3.535399  5.291346    -0.078708    0.097030   -0.003907  
      0.023512  3.535399  5.291346    -0.078708    0.097030   -0.003907  
      3.535399  0.023512  5.291346    -0.078708    0.097030   -0.003907  
      0.023512  0.023512  5.291346    -0.078708    0.097030   -0.003907  
      1.779459  3.535399  3.535399    -0.078708    0.097030   -0.003907  
      5.291346  3.535399  3.535399    -0.078708    0.097030   -0.003907  
      1.779459  0.023512  3.535399    -0.078708    0.097030   -0.003907  
      5.291346  0.023512  3.535399    -0.078708    0.097030   -0.003907  
      1.779459  3.535399  0.023512    -0.078708    0.097030   -0.003907  
      5.291346  3.535399  0.023512    -0.078708    0.097030   -0.003907  
      1.779459  0.023512  0.023512    -0.078708    0.097030   -0.003907  
      5.291346  0.023512  0.023512    -0.078708    0.097030   -0.003907  
      2.657431  0.901487  0.901487    -0.078708    0.097030   -0.003907  
      6.169318  0.901487  0.901487    -0.078708    0.097030   -0.003907  
      2.657431  4.413374  0.901487    -0.078708    0.097030   -0.003907  
      6.169318  4.413374  0.901487    -0.078708    0.097030   -0.003907  
      2.657431  0.901487  4.413374    -0.078708    0.097030   -0.003907  
      6.169318  0.901487  4.413374    -0.078708    0.097030   -0.003907  
      2.657431  4.413374  4.413374    -0.078708    0.097030   -0.003907  
      6.169318  4.413374  4.413374    -0.078708    0.097030   -0.003907  
      0.901487  0.901487  2.657431    -0.078708    0.097030   -0.003907  
      4.413374  0.901487  2.657431    -0.078708    0.097030   -0.003907  
      0.901487  4.413374  2.657431    -0.078708    0.097030   -0.003907  
      4.413374  4.413374  2.657431    -0.078708    0.097030   -0.003907  
      0.901487  0.901487  6.169318    -0.078708    0.097030   -0.003907  
      4.413374  0.901487  6.169318    -0.078708    0.097030   -0.003907  
      0.901487  4.413374  6.169318    -0.078708    0.097030   -0.003907  
      4.413374  4.413374  6.169318    -0.078708    0.097030   -0.003907  
      0.901487  2.657431  0.901487    -0.078708    0.097030   -0.003907  
      4.413374  2.657431  0.901487    -0.078708    0.097030   -0.003907  
      0.901487  6.169318  0.901487    -0.078708    0.097030   -0.003907  
      4.413374  6.169318  0.901487    -0.078708    0.097030   -0.003907  
      0.901487  2.657431  4.413374    -0.078708    0.097030   -0.003907  
      4.413374  2.657431  4.413374    -0.078708    0.097030   -0.003907  
      0.901487  6.169318  4.413374    -0.078708    0.097030   -0.003907  
      4.413374  6.169318  4.413374    -0.078708    0.097030   -0.003907  
 


--------------------------------------------------------------------------------------------------------



 ELASTIC MODULI CONTR FROM IONIC RELAXATION (kBar)
 Direction    XX          YY          ZZ          XY          YZ          ZX
 --------------------------------------------------------------------------------
 XX          -0.0000     -0.0000     -0.0000      0.0000      0.0000      0.0000
 YY          -0.0000     -0.0000     -0.0000      0.0000      0.0000      0.0000
 ZZ          -0.0000     -0.0000     -0.0000      0.0000      0.0000      0.0000
 XY           0.0000      0.0000      0.0000   -143.1251     -0.0000      0.0000
 YZ           0.0000      0.0000      0.0000     -0.0000   -143.1251     -0.0000
 ZX           0.0000      0.0000      0.0000      0.0000     -0.0000   -143.1251
 --------------------------------------------------------------------------------



--------------------------------------------------------------------------------------------------------


     LOOP+:  cpu time  101.7903: real time  101.8854
    4ORBIT:  cpu time    0.0000: real time    0.0000
 


 total charge     
 
# of ion       s       p       d       tot
------------------------------------------
    1        0.842   1.802   0.000   2.645
    2        0.842   1.802   0.000   2.645
    3        0.842   1.802   0.000   2.645
    4        0.842   1.802   0.000   2.645
    5        0.842   1.802   0.000   2.645
    6        0.842   1.802   0.000   2.645
    7        0.842   1.802   0.000   2.645
    8        0.842   1.802   0.000   2.645
    9        0.842   1.802   0.000   2.645
   10        0.842   1.802   0.000   2.645
   11        0.842   1.802   0.000   2.645
   12        0.842   1.802   0.000   2.645
   13        0.842   1.802   0.000   2.645
   14        0.842   1.802   0.000   2.645
   15        0.842   1.802   0.000   2.645
   16        0.842   1.802   0.000   2.645
   17        0.842   1.802   0.000   2.645
   18        0.842   1.802   0.000   2.645
   19        0.842   1.802   0.000   2.645
   20        0.842   1.802   0.000   2.645
   21        0.842   1.802   0.000   2.645
   22        0.842   1.802   0.000   2.645
   23        0.842   1.802   0.000   2.645
   24        0.842   1.802   0.000   2.645
   25        0.842   1.802   0.000   2.645
   26        0.842   1.802   0.000   2.645
   27        0.842   1.802   0.000   2.645
   28        0.842   1.802   0.000   2.645
   29        0.842   1.802   0.000   2.645
   30        0.842   1.802   0.000   2.645
   31        0.842   1.802   0.000   2.645
   32        0.842   1.802   0.000   2.645
   33        0.842   1.802   0.000   2.645
   34        0.842   1.802   0.000   2.645
   35        0.842   1.802   0.000   2.645
   36        0.842   1.802   0.000   2.645
   37        0.842   1.802   0.000   2.645
   38        0.842   1.802   0.000   2.645
   39        0.842   1.802   0.000   2.645
   40        0.842   1.802   0.000   2.645
   41        0.842   1.802   0.000   2.645
   42        0.842   1.802   0.000   2.645
   43        0.842   1.802   0.000   2.645
   44        0.842   1.802   0.000   2.645
   45        0.842   1.802   0.000   2.645
   46        0.842   1.802   0.000   2.645
   47        0.842   1.802   0.000   2.645
   48        0.842   1.802   0.000   2.645
   49        0.842   1.802   0.000   2.645
   50        0.842   1.802   0.000   2.645
   51        0.842   1.802   0.000   2.645
   52        0.842   1.802   0.000   2.645
   53        0.842   1.802   0.000   2.645
   54        0.842   1.802   0.000   2.645
   55        0.842   1.802   0.000   2.645
   56        0.842   1.802   0.000   2.645
   57        0.842   1.802   0.000   2.645
   58        0.842   1.802   0.000   2.645
   59        0.842   1.802   0.000   2.645
   60        0.842   1.802   0.000   2.645
   61        0.842   1.802   0.000   2.645
   62        0.842   1.802   0.000   2.645
   63        0.842   1.802   0.000   2.645
   64        0.842   1.802   0.000   2.645
--------------------------------------------------
tot         53.908 115.352   0.000 169.260
 


 magnetization (x)
 
# of ion       s       p       d       tot
------------------------------------------
    1       -0.000   0.000   0.000  -0.000
    2       -0.000   0.000   0.000  -0.000
    3       -0.000   0.000   0.000  -0.000
    4       -0.000   0.000   0.000  -0.000
    5       -0.000   0.000   0.000  -0.000
    6       -0.000   0.000   0.000  -0.000
    7       -0.000   0.000   0.000  -0.000
    8       -0.000   0.000   0.000  -0.000
    9       -0.000   0.000   0.000  -0.000
   10       -0.000   0.000   0.000  -0.000
   11       -0.000   0.000   0.000  -0.000
   12       -0.000   0.000   0.000  -0.000
   13       -0.000   0.000   0.000  -0.000
   14       -0.000   0.000   0.000  -0.000
   15       -0.000   0.000   0.000  -0.000
   16       -0.000   0.000   0.000  -0.000
   17       -0.000   0.000   0.000  -0.000
   18       -0.000   0.000   0.000  -0.000
   19       -0.000   0.000   0.000  -0.000
   20       -0.000   0.000   0.000  -0.000
   21       -0.000   0.000   0.000  -0.000
   22       -0.000   0.000   0.000  -0.000
   23       -0.000   0.000   0.000  -0.000
   24       -0.000   0.000   0.000  -0.000
   25       -0.000   0.000   0.000  -0.000
   26       -0.000   0.000   0.000  -0.000
   27       -0.000   0.000   0.000  -0.000
   28       -0.000   0.000   0.000  -0.000
   29       -0.000   0.000   0.000  -0.000
   30       -0.000   0.000   0.000  -0.000
   31       -0.000   0.000   0.000  -0.000
   32       -0.000   0.000   0.000  -0.000
   33       -0.000   0.000   0.000  -0.000
   34       -0.000   0.000   0.000  -0.000
   35       -0.000   0.000   0.000  -0.000
   36       -0.000   0.000   0.000  -0.000
   37       -0.000   0.000   0.000  -0.000
   38       -0.000   0.000   0.000  -0.000
   39       -0.000   0.000   0.000  -0.000
   40       -0.000   0.000   0.000  -0.000
   41       -0.000   0.000   0.000  -0.000
   42       -0.000   0.000   0.000  -0.000
   43       -0.000   0.000   0.000  -0.000
   44       -0.000   0.000   0.000  -0.000
   45       -0.000   0.000   0.000  -0.000
   46       -0.000   0.000   0.000  -0.000
   47       -0.000   0.000   0.000  -0.000
   48       -0.000   0.000   0.000  -0.000
   49       -0.000   0.000   0.000  -0.000
   50       -0.000   0.000   0.000  -0.000
   51       -0.000   0.000   0.000  -0.000
   52       -0.000   0.000   0.000  -0.000
   53       -0.000   0.000   0.000  -0.000
   54       -0.000   0.000   0.000  -0.000
   55       -0.000   0.000   0.000  -0.000
   56       -0.000   0.000   0.000  -0.000
   57       -0.000   0.000   0.000  -0.000
   58       -0.000   0.000   0.000  -0.000
   59       -0.000   0.000   0.000  -0.000
   60       -0.000   0.000   0.000  -0.000
   61       -0.000   0.000   0.000  -0.000
   62       -0.000   0.000   0.000  -0.000
   63       -0.000   0.000   0.000  -0.000
   64       -0.000   0.000   0.000  -0.000
--------------------------------------------------
tot         -0.000   0.000   0.000  -0.000
 
 BZINTS: Fermi energy: 10.537548;256.000000 electrons
         Band energy: 301.882245;  BLOECHL correction:  0.000000

 total amount of memory used by VASP MPI-rank0    71562. kBytes
=======================================================================

   base      :      30000. kBytes
   nonl-proj :       8151. kBytes
   fftplans  :       8604. kBytes
   grid      :      12966. kBytes
   one-center:        393. kBytes
   wavefun   :      11448. kBytes
 
  
  
 General timing and accounting informations for this job:
 ========================================================
  
                  Total CPU time used (sec):      104.440
                            User time (sec):      104.116
                          System time (sec):        0.324
                         Elapsed time (sec):      104.533
  
                   Maximum memory used (kb):      202960.
                   Average memory used (kb):           0.
  
                          Minor page faults:        72060
                          Major page faults:         1275
                 Voluntary context switches:          660
