  32   32
1 1
    44.529365081889999     0.000000000000000    -0.000000000000000
     0.000000000000000    44.529354992649992     0.000000000000000
    -0.000000000000000     0.000000000000000    42.855557643579999
1 2
    -6.342370475129999     0.000000000000000    -0.000000000000000
     0.000000000000000     2.207408604750000    -1.324280852370000
    -0.000000000000000    -1.324280852370000     1.264096734120000
1 3
     0.069964195110000     3.702162781220000     1.146860966420000
     3.702162781220000    -4.204924624170000     0.662140366130000
     1.146860966420000     0.662140366130000     1.264096734120000
1 4
     0.069964195110000    -3.702162781220000    -1.146860966420000
    -3.702162781220000    -4.204924624170000     0.662140366130000
    -1.146860966420000     0.662140366130000     1.264096734120000
1 5
    -0.108861097950000    -0.000000000000000    -0.000000000000000
    -0.000000000000000    -0.108861097950000    -0.000000000000000
    -0.000000000000000    -0.000000000000000     0.014992370420000
1 6
     0.127402598760000    -0.000000000000000    -0.000000000000000
    -0.000000000000000    -0.072959378180000    -0.082048582320000
    -0.000000000000000    -0.082048582320000    -0.067517194080000
1 7
    -0.022868823890000    -0.086759296520000     0.071056235230000
    -0.086759296520000     0.077312164580000     0.041024291160000
     0.071056235230000     0.041024291160000    -0.067517194080000
1 8
    -0.022868823890000     0.086759296520000    -0.071056235230000
     0.086759296520000     0.077312164580000     0.041024291160000
    -0.071056235230000     0.041024291160000    -0.067517194080000
1 9
     0.112919254520000    -0.108217188240000     2.327036242990000
    -0.108217188240000    -0.012039225850000    -1.343514907440000
     0.998890370930000    -0.576709486210000    -1.799266657270000
1 10
     0.112919254520000     0.108217188240000    -2.327036242990000
     0.108217188240000    -0.012039225850000    -1.343514907440000
    -0.998890370930000    -0.576709486210000    -1.799266657270000
1 11
    -0.074518405980000     0.000000000000000     0.000000000000000
     0.000000000000000     0.175398554760000     2.687029694770000
     0.000000000000000     1.153419092530000    -1.799266657270000
1 12
     0.009596188450000     0.000000000000000    -0.000000000000000
     0.000000000000000     0.009596188450000    -0.000000000000000
    -0.000000000000000    -0.000000000000000    -0.147010195930000
1 13
     0.112919254520000    -0.108217188240000    -0.998890370930000
    -0.108217188240000    -0.012039225850000     0.576709486210000
    -2.327036242990000     1.343514907440000    -1.799266657270000
1 14
     0.112919254520000     0.108217188240000     0.998890370930000
     0.108217188240000    -0.012039225850000     0.576709486210000
     2.327036242990000     1.343514907440000    -1.799266657270000
1 15
    -0.074518405980000     0.000000000000000    -0.000000000000000
     0.000000000000000     0.175398554760000    -1.153419092530000
    -0.000000000000000    -2.687029694770000    -1.799266657270000
1 16
     0.009596188450000     0.000000000000000     0.000000000000000
    -0.000000000000000     0.009596188450000     0.000000000000000
     0.000000000000000     0.000000000000000    -0.147010195930000
1 17
    -0.332433491620000     0.244976356000000    -0.015396060130000
     0.244976356000000    -0.049559067540000     0.008888980770000
    -0.015396060130000     0.008888980770000     0.170253402690000
1 18
    -0.332433491620000    -0.244976356000000     0.015396060130000
    -0.244976356000000    -0.049559067540000     0.008888980770000
     0.015396060130000     0.008888980770000     0.170253402690000
1 19
     0.091878144500000    -0.000000000000000    -0.000000000000000
    -0.000000000000000    -0.473870463440000    -0.017777841430000
    -0.000000000000000    -0.017777841430000     0.170253402690000
1 20
    -0.011569115310000    -0.000000000000000     0.000000000000000
    -0.000000000000000    -0.011569115310000     0.000000000000000
     0.000000000000000     0.000000000000000    -0.108240129250000
1 21
   -12.544775566159998     3.021781309390000    -2.088408180930000
     3.021781309390000    -9.055520731820000     1.205742972160000
    -2.088408180930000     1.205742972160000    -7.699614556119999
1 22
   -12.544775566159998    -3.021781309390000     2.088408180930000
    -3.021781309390000    -9.055520731820000     1.205742972160000
     2.088408180930000     1.205742972160000    -7.699614556119999
1 23
    -7.310896317399999    -0.000000000000000    -0.000000000000000
    -0.000000000000000   -14.289398779479999    -2.411485824210000
    -0.000000000000000    -2.411485824210000    -7.699614556119999
1 24
     0.636712959020000     0.000000000000000     0.000000000000000
     0.000000000000000     0.636712838910000     0.000000000000000
     0.000000000000000     0.000000000000000     0.011705920600000
1 25
    -6.822268658920000    -0.000000000000000    -0.000000000000000
    -0.000000000000000    -6.822267097489999     0.000000000000000
    -0.000000000000000    -0.000000000000000   -11.331915716170000
1 26
     0.281115653350000     0.000000000000000     0.000000000000000
     0.000000000000000     0.123083923600000     0.041140917970000
    -0.000000000000000    -0.041140917970000     0.078780149000000
1 27
     0.162591826010000    -0.068429789860000    -0.035629070070000
    -0.068429789860000     0.241607630830000    -0.020570398930000
     0.035629070070000     0.020570398930000     0.078780149000000
1 28
     0.162591826010000     0.068429789860000     0.035629070070000
     0.068429789860000     0.241607630830000    -0.020570398930000
    -0.035629070070000     0.020570398930000     0.078780149000000
1 29
     0.239130241970000     0.000000000000000     0.000000000000000
     0.000000000000000     0.239130241970000    -0.000000000000000
    -0.000000000000000     0.000000000000000    -0.064735086150000
1 30
    -0.144961960100000    -0.000000000000000    -0.000000000000000
    -0.000000000000000    -0.052656704440000    -0.185598776400000
     0.000000000000000     0.185598776400000    -0.508579971350000
1 31
    -0.075732958300000     0.039969365030000     0.160733363980000
     0.039969365030000    -0.121885586130000     0.092799388200000
    -0.160733363980000    -0.092799388200000    -0.508579971350000
1 32
    -0.075732958300000    -0.039969365030000    -0.160733363980000
    -0.039969365030000    -0.121885586130000     0.092799388200000
     0.160733363980000    -0.092799388200000    -0.508579971350000
2 1
    -6.342370475129999     0.000000000000000    -0.000000000000000
     0.000000000000000     2.207408604750000    -1.324280852370000
    -0.000000000000000    -1.324280852370000     1.264096734120000
2 2
    44.529365081889999     0.000000000000000    -0.000000000000000
     0.000000000000000    44.529354992649992     0.000000000000000
    -0.000000000000000     0.000000000000000    42.855557643579999
2 3
     0.069964195110000    -3.702162781220000    -1.146860966420000
    -3.702162781220000    -4.204924624170000     0.662140366130000
    -1.146860966420000     0.662140366130000     1.264096734120000
2 4
     0.069964195110000     3.702162781220000     1.146860966420000
     3.702162781220000    -4.204924624170000     0.662140366130000
     1.146860966420000     0.662140366130000     1.264096734120000
2 5
     0.127402598760000    -0.000000000000000    -0.000000000000000
    -0.000000000000000    -0.072959378180000    -0.082048582320000
    -0.000000000000000    -0.082048582320000    -0.067517194080000
2 6
    -0.108861097950000    -0.000000000000000    -0.000000000000000
    -0.000000000000000    -0.108861097950000    -0.000000000000000
    -0.000000000000000    -0.000000000000000     0.014992370420000
2 7
    -0.022868823890000     0.086759296520000    -0.071056235230000
     0.086759296520000     0.077312164580000     0.041024291160000
    -0.071056235230000     0.041024291160000    -0.067517194080000
2 8
    -0.022868823890000    -0.086759296520000     0.071056235230000
    -0.086759296520000     0.077312164580000     0.041024291160000
     0.071056235230000     0.041024291160000    -0.067517194080000
2 9
     0.112919254520000     0.108217188240000    -2.327036242990000
     0.108217188240000    -0.012039225850000    -1.343514907440000
    -0.998890370930000    -0.576709486210000    -1.799266657270000
2 10
     0.112919254520000    -0.108217188240000     2.327036242990000
    -0.108217188240000    -0.012039225850000    -1.343514907440000
     0.998890370930000    -0.576709486210000    -1.799266657270000
2 11
     0.009596188450000     0.000000000000000    -0.000000000000000
     0.000000000000000     0.009596188450000    -0.000000000000000
    -0.000000000000000    -0.000000000000000    -0.147010195930000
2 12
    -0.074518405980000     0.000000000000000     0.000000000000000
     0.000000000000000     0.175398554760000     2.687029694770000
     0.000000000000000     1.153419092530000    -1.799266657270000
2 13
     0.112919254520000     0.108217188240000     0.998890370930000
     0.108217188240000    -0.012039225850000     0.576709486210000
     2.327036242990000     1.343514907440000    -1.799266657270000
2 14
     0.112919254520000    -0.108217188240000    -0.998890370930000
    -0.108217188240000    -0.012039225850000     0.576709486210000
    -2.327036242990000     1.343514907440000    -1.799266657270000
2 15
     0.009596188450000     0.000000000000000     0.000000000000000
    -0.000000000000000     0.009596188450000     0.000000000000000
     0.000000000000000     0.000000000000000    -0.147010195930000
2 16
    -0.074518405980000     0.000000000000000    -0.000000000000000
     0.000000000000000     0.175398554760000    -1.153419092530000
    -0.000000000000000    -2.687029694770000    -1.799266657270000
2 17
    -0.332433491620000    -0.244976356000000     0.015396060130000
    -0.244976356000000    -0.049559067540000     0.008888980770000
     0.015396060130000     0.008888980770000     0.170253402690000
2 18
    -0.332433491620000     0.244976356000000    -0.015396060130000
     0.244976356000000    -0.049559067540000     0.008888980770000
    -0.015396060130000     0.008888980770000     0.170253402690000
2 19
    -0.011569115310000    -0.000000000000000     0.000000000000000
    -0.000000000000000    -0.011569115310000     0.000000000000000
     0.000000000000000     0.000000000000000    -0.108240129250000
2 20
     0.091878144500000    -0.000000000000000    -0.000000000000000
    -0.000000000000000    -0.473870463440000    -0.017777841430000
    -0.000000000000000    -0.017777841430000     0.170253402690000
2 21
   -12.544775566159998    -3.021781309390000     2.088408180930000
    -3.021781309390000    -9.055520731820000     1.205742972160000
     2.088408180930000     1.205742972160000    -7.699614556119999
2 22
   -12.544775566159998     3.021781309390000    -2.088408180930000
     3.021781309390000    -9.055520731820000     1.205742972160000
    -2.088408180930000     1.205742972160000    -7.699614556119999
2 23
     0.636712959020000     0.000000000000000     0.000000000000000
     0.000000000000000     0.636712838910000     0.000000000000000
     0.000000000000000     0.000000000000000     0.011705920600000
2 24
    -7.310896317399999    -0.000000000000000    -0.000000000000000
    -0.000000000000000   -14.289398779479999    -2.411485824210000
    -0.000000000000000    -2.411485824210000    -7.699614556119999
2 25
     0.281115653350000     0.000000000000000     0.000000000000000
     0.000000000000000     0.123083923600000     0.041140917970000
    -0.000000000000000    -0.041140917970000     0.078780149000000
2 26
    -6.822268658920000    -0.000000000000000    -0.000000000000000
    -0.000000000000000    -6.822267097489999     0.000000000000000
    -0.000000000000000    -0.000000000000000   -11.331915716170000
2 27
     0.162591826010000     0.068429789860000     0.035629070070000
     0.068429789860000     0.241607630830000    -0.020570398930000
    -0.035629070070000     0.020570398930000     0.078780149000000
2 28
     0.162591826010000    -0.068429789860000    -0.035629070070000
    -0.068429789860000     0.241607630830000    -0.020570398930000
     0.035629070070000     0.020570398930000     0.078780149000000
2 29
    -0.144961960100000    -0.000000000000000    -0.000000000000000
    -0.000000000000000    -0.052656704440000    -0.185598776400000
     0.000000000000000     0.185598776400000    -0.508579971350000
2 30
     0.239130241970000     0.000000000000000     0.000000000000000
     0.000000000000000     0.239130241970000    -0.000000000000000
    -0.000000000000000     0.000000000000000    -0.064735086150000
2 31
    -0.075732958300000    -0.039969365030000    -0.160733363980000
    -0.039969365030000    -0.121885586130000     0.092799388200000
     0.160733363980000    -0.092799388200000    -0.508579971350000
2 32
    -0.075732958300000     0.039969365030000     0.160733363980000
     0.039969365030000    -0.121885586130000     0.092799388200000
    -0.160733363980000    -0.092799388200000    -0.508579971350000
3 1
     0.069964195110000     3.702162781220000     1.146860966420000
     3.702162781220000    -4.204924624170000     0.662140366130000
     1.146860966420000     0.662140366130000     1.264096734120000
3 2
     0.069964195110000    -3.702162781220000    -1.146860966420000
    -3.702162781220000    -4.204924624170000     0.662140366130000
    -1.146860966420000     0.662140366130000     1.264096734120000
3 3
    44.529365081889999     0.000000000000000    -0.000000000000000
     0.000000000000000    44.529354992649992     0.000000000000000
    -0.000000000000000     0.000000000000000    42.855557643579999
3 4
    -6.342370475129999     0.000000000000000    -0.000000000000000
     0.000000000000000     2.207408604750000    -1.324280852370000
    -0.000000000000000    -1.324280852370000     1.264096734120000
3 5
    -0.022868823890000    -0.086759296520000     0.071056235230000
    -0.086759296520000     0.077312164580000     0.041024291160000
     0.071056235230000     0.041024291160000    -0.067517194080000
3 6
    -0.022868823890000     0.086759296520000    -0.071056235230000
     0.086759296520000     0.077312164580000     0.041024291160000
    -0.071056235230000     0.041024291160000    -0.067517194080000
3 7
    -0.108861097950000    -0.000000000000000    -0.000000000000000
    -0.000000000000000    -0.108861097950000    -0.000000000000000
    -0.000000000000000    -0.000000000000000     0.014992370420000
3 8
     0.127402598760000    -0.000000000000000    -0.000000000000000
    -0.000000000000000    -0.072959378180000    -0.082048582320000
    -0.000000000000000    -0.082048582320000    -0.067517194080000
3 9
    -0.074518405980000     0.000000000000000     0.000000000000000
     0.000000000000000     0.175398554760000     2.687029694770000
     0.000000000000000     1.153419092530000    -1.799266657270000
3 10
     0.009596188450000     0.000000000000000    -0.000000000000000
     0.000000000000000     0.009596188450000    -0.000000000000000
    -0.000000000000000    -0.000000000000000    -0.147010195930000
3 11
     0.112919254520000    -0.108217188240000     2.327036242990000
    -0.108217188240000    -0.012039225850000    -1.343514907440000
     0.998890370930000    -0.576709486210000    -1.799266657270000
3 12
     0.112919254520000     0.108217188240000    -2.327036242990000
     0.108217188240000    -0.012039225850000    -1.343514907440000
    -0.998890370930000    -0.576709486210000    -1.799266657270000
3 13
    -0.074518405980000     0.000000000000000    -0.000000000000000
     0.000000000000000     0.175398554760000    -1.153419092530000
    -0.000000000000000    -2.687029694770000    -1.799266657270000
3 14
     0.009596188450000     0.000000000000000     0.000000000000000
    -0.000000000000000     0.009596188450000     0.000000000000000
     0.000000000000000     0.000000000000000    -0.147010195930000
3 15
     0.112919254520000    -0.108217188240000    -0.998890370930000
    -0.108217188240000    -0.012039225850000     0.576709486210000
    -2.327036242990000     1.343514907440000    -1.799266657270000
3 16
     0.112919254520000     0.108217188240000     0.998890370930000
     0.108217188240000    -0.012039225850000     0.576709486210000
     2.327036242990000     1.343514907440000    -1.799266657270000
3 17
     0.091878144500000    -0.000000000000000    -0.000000000000000
    -0.000000000000000    -0.473870463440000    -0.017777841430000
    -0.000000000000000    -0.017777841430000     0.170253402690000
3 18
    -0.011569115310000    -0.000000000000000     0.000000000000000
    -0.000000000000000    -0.011569115310000     0.000000000000000
     0.000000000000000     0.000000000000000    -0.108240129250000
3 19
    -0.332433491620000     0.244976356000000    -0.015396060130000
     0.244976356000000    -0.049559067540000     0.008888980770000
    -0.015396060130000     0.008888980770000     0.170253402690000
3 20
    -0.332433491620000    -0.244976356000000     0.015396060130000
    -0.244976356000000    -0.049559067540000     0.008888980770000
     0.015396060130000     0.008888980770000     0.170253402690000
3 21
    -7.310896317399999    -0.000000000000000    -0.000000000000000
    -0.000000000000000   -14.289398779479999    -2.411485824210000
    -0.000000000000000    -2.411485824210000    -7.699614556119999
3 22
     0.636712959020000     0.000000000000000     0.000000000000000
     0.000000000000000     0.636712838910000     0.000000000000000
     0.000000000000000     0.000000000000000     0.011705920600000
3 23
   -12.544775566159998     3.021781309390000    -2.088408180930000
     3.021781309390000    -9.055520731820000     1.205742972160000
    -2.088408180930000     1.205742972160000    -7.699614556119999
3 24
   -12.544775566159998    -3.021781309390000     2.088408180930000
    -3.021781309390000    -9.055520731820000     1.205742972160000
     2.088408180930000     1.205742972160000    -7.699614556119999
3 25
     0.162591826010000    -0.068429789860000    -0.035629070070000
    -0.068429789860000     0.241607630830000    -0.020570398930000
     0.035629070070000     0.020570398930000     0.078780149000000
3 26
     0.162591826010000     0.068429789860000     0.035629070070000
     0.068429789860000     0.241607630830000    -0.020570398930000
    -0.035629070070000     0.020570398930000     0.078780149000000
3 27
    -6.822268658920000    -0.000000000000000    -0.000000000000000
    -0.000000000000000    -6.822267097489999     0.000000000000000
    -0.000000000000000    -0.000000000000000   -11.331915716170000
3 28
     0.281115653350000     0.000000000000000     0.000000000000000
     0.000000000000000     0.123083923600000     0.041140917970000
    -0.000000000000000    -0.041140917970000     0.078780149000000
3 29
    -0.075732958300000     0.039969365030000     0.160733363980000
     0.039969365030000    -0.121885586130000     0.092799388200000
    -0.160733363980000    -0.092799388200000    -0.508579971350000
3 30
    -0.075732958300000    -0.039969365030000    -0.160733363980000
    -0.039969365030000    -0.121885586130000     0.092799388200000
     0.160733363980000    -0.092799388200000    -0.508579971350000
3 31
     0.239130241970000     0.000000000000000     0.000000000000000
     0.000000000000000     0.239130241970000    -0.000000000000000
    -0.000000000000000     0.000000000000000    -0.064735086150000
3 32
    -0.144961960100000    -0.000000000000000    -0.000000000000000
    -0.000000000000000    -0.052656704440000    -0.185598776400000
     0.000000000000000     0.185598776400000    -0.508579971350000
4 1
     0.069964195110000    -3.702162781220000    -1.146860966420000
    -3.702162781220000    -4.204924624170000     0.662140366130000
    -1.146860966420000     0.662140366130000     1.264096734120000
4 2
     0.069964195110000     3.702162781220000     1.146860966420000
     3.702162781220000    -4.204924624170000     0.662140366130000
     1.146860966420000     0.662140366130000     1.264096734120000
4 3
    -6.342370475129999     0.000000000000000    -0.000000000000000
     0.000000000000000     2.207408604750000    -1.324280852370000
    -0.000000000000000    -1.324280852370000     1.264096734120000
4 4
    44.529365081889999     0.000000000000000    -0.000000000000000
     0.000000000000000    44.529354992649992     0.000000000000000
    -0.000000000000000     0.000000000000000    42.855557643579999
4 5
    -0.022868823890000     0.086759296520000    -0.071056235230000
     0.086759296520000     0.077312164580000     0.041024291160000
    -0.071056235230000     0.041024291160000    -0.067517194080000
4 6
    -0.022868823890000    -0.086759296520000     0.071056235230000
    -0.086759296520000     0.077312164580000     0.041024291160000
     0.071056235230000     0.041024291160000    -0.067517194080000
4 7
     0.127402598760000    -0.000000000000000    -0.000000000000000
    -0.000000000000000    -0.072959378180000    -0.082048582320000
    -0.000000000000000    -0.082048582320000    -0.067517194080000
4 8
    -0.108861097950000    -0.000000000000000    -0.000000000000000
    -0.000000000000000    -0.108861097950000    -0.000000000000000
    -0.000000000000000    -0.000000000000000     0.014992370420000
4 9
     0.009596188450000     0.000000000000000    -0.000000000000000
     0.000000000000000     0.009596188450000    -0.000000000000000
    -0.000000000000000    -0.000000000000000    -0.147010195930000
4 10
    -0.074518405980000     0.000000000000000     0.000000000000000
     0.000000000000000     0.175398554760000     2.687029694770000
     0.000000000000000     1.153419092530000    -1.799266657270000
4 11
     0.112919254520000     0.108217188240000    -2.327036242990000
     0.108217188240000    -0.012039225850000    -1.343514907440000
    -0.998890370930000    -0.576709486210000    -1.799266657270000
4 12
     0.112919254520000    -0.108217188240000     2.327036242990000
    -0.108217188240000    -0.012039225850000    -1.343514907440000
     0.998890370930000    -0.576709486210000    -1.799266657270000
4 13
     0.009596188450000     0.000000000000000     0.000000000000000
    -0.000000000000000     0.009596188450000     0.000000000000000
     0.000000000000000     0.000000000000000    -0.147010195930000
4 14
    -0.074518405980000     0.000000000000000    -0.000000000000000
     0.000000000000000     0.175398554760000    -1.153419092530000
    -0.000000000000000    -2.687029694770000    -1.799266657270000
4 15
     0.112919254520000     0.108217188240000     0.998890370930000
     0.108217188240000    -0.012039225850000     0.576709486210000
     2.327036242990000     1.343514907440000    -1.799266657270000
4 16
     0.112919254520000    -0.108217188240000    -0.998890370930000
    -0.108217188240000    -0.012039225850000     0.576709486210000
    -2.327036242990000     1.343514907440000    -1.799266657270000
4 17
    -0.011569115310000    -0.000000000000000     0.000000000000000
    -0.000000000000000    -0.011569115310000     0.000000000000000
     0.000000000000000     0.000000000000000    -0.108240129250000
4 18
     0.091878144500000    -0.000000000000000    -0.000000000000000
    -0.000000000000000    -0.473870463440000    -0.017777841430000
    -0.000000000000000    -0.017777841430000     0.170253402690000
4 19
    -0.332433491620000    -0.244976356000000     0.015396060130000
    -0.244976356000000    -0.049559067540000     0.008888980770000
     0.015396060130000     0.008888980770000     0.170253402690000
4 20
    -0.332433491620000     0.244976356000000    -0.015396060130000
     0.244976356000000    -0.049559067540000     0.008888980770000
    -0.015396060130000     0.008888980770000     0.170253402690000
4 21
     0.636712959020000     0.000000000000000     0.000000000000000
     0.000000000000000     0.636712838910000     0.000000000000000
     0.000000000000000     0.000000000000000     0.011705920600000
4 22
    -7.310896317399999    -0.000000000000000    -0.000000000000000
    -0.000000000000000   -14.289398779479999    -2.411485824210000
    -0.000000000000000    -2.411485824210000    -7.699614556119999
4 23
   -12.544775566159998    -3.021781309390000     2.088408180930000
    -3.021781309390000    -9.055520731820000     1.205742972160000
     2.088408180930000     1.205742972160000    -7.699614556119999
4 24
   -12.544775566159998     3.021781309390000    -2.088408180930000
     3.021781309390000    -9.055520731820000     1.205742972160000
    -2.088408180930000     1.205742972160000    -7.699614556119999
4 25
     0.162591826010000     0.068429789860000     0.035629070070000
     0.068429789860000     0.241607630830000    -0.020570398930000
    -0.035629070070000     0.020570398930000     0.078780149000000
4 26
     0.162591826010000    -0.068429789860000    -0.035629070070000
    -0.068429789860000     0.241607630830000    -0.020570398930000
     0.035629070070000     0.020570398930000     0.078780149000000
4 27
     0.281115653350000     0.000000000000000     0.000000000000000
     0.000000000000000     0.123083923600000     0.041140917970000
    -0.000000000000000    -0.041140917970000     0.078780149000000
4 28
    -6.822268658920000    -0.000000000000000    -0.000000000000000
    -0.000000000000000    -6.822267097489999     0.000000000000000
    -0.000000000000000    -0.000000000000000   -11.331915716170000
4 29
    -0.075732958300000    -0.039969365030000    -0.160733363980000
    -0.039969365030000    -0.121885586130000     0.092799388200000
     0.160733363980000    -0.092799388200000    -0.508579971350000
4 30
    -0.075732958300000     0.039969365030000     0.160733363980000
     0.039969365030000    -0.121885586130000     0.092799388200000
    -0.160733363980000    -0.092799388200000    -0.508579971350000
4 31
    -0.144961960100000    -0.000000000000000    -0.000000000000000
    -0.000000000000000    -0.052656704440000    -0.185598776400000
     0.000000000000000     0.185598776400000    -0.508579971350000
4 32
     0.239130241970000     0.000000000000000     0.000000000000000
     0.000000000000000     0.239130241970000    -0.000000000000000
    -0.000000000000000     0.000000000000000    -0.064735086150000
5 1
    -0.108861097950000    -0.000000000000000    -0.000000000000000
    -0.000000000000000    -0.108861097950000    -0.000000000000000
    -0.000000000000000    -0.000000000000000     0.014992370420000
5 2
     0.127402598760000    -0.000000000000000    -0.000000000000000
    -0.000000000000000    -0.072959378180000    -0.082048582320000
    -0.000000000000000    -0.082048582320000    -0.067517194080000
5 3
    -0.022868823890000    -0.086759296520000     0.071056235230000
    -0.086759296520000     0.077312164580000     0.041024291160000
     0.071056235230000     0.041024291160000    -0.067517194080000
5 4
    -0.022868823890000     0.086759296520000    -0.071056235230000
     0.086759296520000     0.077312164580000     0.041024291160000
    -0.071056235230000     0.041024291160000    -0.067517194080000
5 5
    44.529365081889999     0.000000000000000    -0.000000000000000
     0.000000000000000    44.529354992649992     0.000000000000000
    -0.000000000000000     0.000000000000000    42.855557643579999
5 6
    -6.342370475129999     0.000000000000000    -0.000000000000000
     0.000000000000000     2.207408604750000    -1.324280852370000
    -0.000000000000000    -1.324280852370000     1.264096734120000
5 7
     0.069964195110000     3.702162781220000     1.146860966420000
     3.702162781220000    -4.204924624170000     0.662140366130000
     1.146860966420000     0.662140366130000     1.264096734120000
5 8
     0.069964195110000    -3.702162781220000    -1.146860966420000
    -3.702162781220000    -4.204924624170000     0.662140366130000
    -1.146860966420000     0.662140366130000     1.264096734120000
5 9
     0.112919254520000    -0.108217188240000    -0.998890370930000
    -0.108217188240000    -0.012039225850000     0.576709486210000
    -2.327036242990000     1.343514907440000    -1.799266657270000
5 10
     0.112919254520000     0.108217188240000     0.998890370930000
     0.108217188240000    -0.012039225850000     0.576709486210000
     2.327036242990000     1.343514907440000    -1.799266657270000
5 11
    -0.074518405980000     0.000000000000000    -0.000000000000000
     0.000000000000000     0.175398554760000    -1.153419092530000
    -0.000000000000000    -2.687029694770000    -1.799266657270000
5 12
     0.009596188450000     0.000000000000000     0.000000000000000
    -0.000000000000000     0.009596188450000     0.000000000000000
     0.000000000000000     0.000000000000000    -0.147010195930000
5 13
     0.112919254520000    -0.108217188240000     2.327036242990000
    -0.108217188240000    -0.012039225850000    -1.343514907440000
     0.998890370930000    -0.576709486210000    -1.799266657270000
5 14
     0.112919254520000     0.108217188240000    -2.327036242990000
     0.108217188240000    -0.012039225850000    -1.343514907440000
    -0.998890370930000    -0.576709486210000    -1.799266657270000
5 15
    -0.074518405980000     0.000000000000000     0.000000000000000
     0.000000000000000     0.175398554760000     2.687029694770000
     0.000000000000000     1.153419092530000    -1.799266657270000
5 16
     0.009596188450000     0.000000000000000    -0.000000000000000
     0.000000000000000     0.009596188450000    -0.000000000000000
    -0.000000000000000    -0.000000000000000    -0.147010195930000
5 17
   -12.544775566159998     3.021781309390000    -2.088408180930000
     3.021781309390000    -9.055520731820000     1.205742972160000
    -2.088408180930000     1.205742972160000    -7.699614556119999
5 18
   -12.544775566159998    -3.021781309390000     2.088408180930000
    -3.021781309390000    -9.055520731820000     1.205742972160000