       N       E                     dE             d eps       ncg     rms          rms(c)
DAV:   1    -0.100124778865E+03   -0.10012E+03   -0.59969E+04  1792   0.924E+02
DAV:   2    -0.669352945161E+03   -0.56923E+03   -0.54129E+03  2240   0.237E+02
DAV:   3    -0.695256145811E+03   -0.25903E+02   -0.25614E+02  2496   0.453E+01
DAV:   4    -0.695772536577E+03   -0.51639E+00   -0.51449E+00  2416   0.645E+00
DAV:   5    -0.695784696089E+03   -0.12160E-01   -0.12149E-01  2432   0.979E-01    0.914E+01
RMM:   6    -0.397727581950E+03    0.29806E+03   -0.17765E+02  1792   0.322E+01    0.488E+01
RMM:   7    -0.288347451909E+03    0.10938E+03   -0.26582E+02  1792   0.383E+01    0.624E+00
RMM:   8    -0.288734046243E+03   -0.38659E+00   -0.16720E+00  1792   0.411E+00    0.218E+00
RMM:   9    -0.288967545824E+03   -0.23350E+00   -0.36373E-01  1792   0.220E+00    0.678E-01
RMM:  10    -0.288987812062E+03   -0.20266E-01   -0.60785E-02  1792   0.790E-01    0.171E-01
RMM:  11    -0.288988597565E+03   -0.78550E-03   -0.17767E-03  1792   0.134E-01    0.139E-01
RMM:  12    -0.288988433603E+03    0.16396E-03   -0.36317E-04  1792   0.601E-02    0.377E-02
RMM:  13    -0.288988405271E+03    0.28332E-04   -0.11880E-04  1792   0.304E-02    0.314E-03
RMM:  14    -0.288988406113E+03   -0.84168E-06   -0.27194E-06  1423   0.522E-03
   1 F= -.17479280E+03 E0= -.17479280E+03  d E =0.000000E+00  mag=    -0.0000
 Linear response reoptimize wavefunctions
DAV:   1    -0.288988407277E+03   -0.11420E+03   -0.64058E-07  1904   0.263E-03
DAV:   2    -0.288988407280E+03   -0.22857E-08   -0.17178E-08  1664   0.327E-04
DAV:   3    -0.288988407279E+03    0.12108E-09   -0.44049E-10  1536   0.663E-05
 Linear response DOF=            2
 Linear response progress:
  Degree of freedom:   1/  2
       N       E                     dE             d eps       ncg     rms          rms(c)
RMM:   1    -0.143977609088E+00   -0.14398E+00    0.22597E-02 10066   0.862E-01
RMM:   2    -0.124446170999E+00    0.19531E-01   -0.58633E-03  5893   0.196E-01    0.182E-01
RMM:   3    -0.124396655542E+00    0.49515E-04   -0.75231E-04  6090   0.543E-02    0.931E-02
RMM:   4    -0.124780727384E+00   -0.38407E-03   -0.18683E-04  5903   0.296E-02    0.288E-02
RMM:   5    -0.124918074046E+00   -0.13735E-03   -0.13991E-05  6176   0.902E-03    0.703E-03
RMM:   6    -0.124888897385E+00    0.29177E-04   -0.20755E-06  6154   0.278E-03    0.913E-04
RMM:   7    -0.124884037376E+00    0.48600E-05    0.10698E-07  6585   0.426E-04    0.328E-04
RMM:   8    -0.124883226030E+00    0.81135E-06    0.66368E-08  6953   0.179E-04    0.133E-04
 Linear response progress:
  Degree of freedom:   2/  2
       N       E                     dE             d eps       ncg     rms          rms(c)
RMM:   1    -0.144017317164E+00   -0.14402E+00    0.27435E-02  5069   0.831E-01
RMM:   2    -0.125574227926E+00    0.18443E-01   -0.55459E-03  2884   0.186E-01    0.181E-01
RMM:   3    -0.125517855795E+00    0.56372E-04   -0.67307E-04  2938   0.537E-02    0.922E-02
RMM:   4    -0.125875654305E+00   -0.35780E-03   -0.18514E-04  2826   0.301E-02    0.277E-02
RMM:   5    -0.125986917863E+00   -0.11126E-03   -0.12226E-05  3021   0.877E-03    0.718E-03
RMM:   6    -0.125957865694E+00    0.29052E-04    0.15049E-07  3024   0.285E-03    0.146E-03
RMM:   7    -0.125950576499E+00    0.72892E-05    0.25364E-06  3138   0.650E-04    0.407E-04
RMM:   8    -0.125948489795E+00    0.20867E-05    0.36481E-06  3282   0.253E-04    0.167E-04
RMM:   9    -0.125948210600E+00    0.27920E-06    0.50637E-06  3445   0.126E-04    0.707E-05
 Linear response finished
