PROCAR lm decomposed
# of k-points:    4         # of bands:  112         # of ions:   32

 k-point     1 :    0.00000000 0.00000000 0.00000000     weight = 0.12500000

band     1 # energy  -11.74121508 # occ.  1.00000000
 
ion      s     py     pz     px    dxy    dyz    dz2    dxz  x2-y2    tot
    1  0.017  0.000  0.000  0.000  0.000  0.000  0.000  0.000  0.000  0.017
    2  0.017  0.000  0.000  0.000  0.000  0.000  0.000  0.000  0.000  0.017
    3  0.017  0.000  0.000  0.000  0.000  0.000  0.000  0.000  0.000  0.017
    4  0.017  0.000  0.000  0.000  0.000  0.000  0.000  0.000  0.000  0.017
    5  0.017  0.000  0.000  0.000  0.000  0.000  0.000  0.000  0.000  0.017
    6  0.017  0.000  0.000  0.000  0.000  0.000  0.000  0.000  0.000  0.017
    7  0.017  0.000  0.000  0.000  0.000  0.000  0.000  0.000  0.000  0.017
    8  0.017  0.000  0.000  0.000  0.000  0.000  0.000  0.000  0.000  0.017
    9  0.017  0.000  0.000  0.000  0.000  0.000  0.000  0.000  0.000  0.017
   10  0.017  0.000  0.000  0.000  0.000  0.000  0.000  0.000  0.000  0.017
   11  0.017  0.000  0.000  0.000  0.000  0.000  0.000  0.000  0.000  0.017
   12  0.017  0.000  0.000  0.000  0.000  0.000  0.000  0.000  0.000  0.017
   13  0.017  0.000  0.000  0.000  0.000  0.000  0.000  0.000  0.000  0.017
   14  0.017  0.000  0.000  0.000  0.000  0.000  0.000  0.000  0.000  0.017
   15  0.017  0.000  0.000  0.000  0.000  0.000  0.000  0.000  0.000  0.017
   16  0.017  0.000  0.000  0.000  0.000  0.000  0.000  0.000  0.000  0.017
   17  0.017  0.000  0.000  0.000  0.000  0.000  0.000  0.000  0.000  0.017
   18  0.017  0.000  0.000  0.000  0.000  0.000  0.000  0.000  0.000  0.017
   19  0.017  0.000  0.000  0.000  0.000  0.000  0.000  0.000  0.000  0.017
   20  0.017  0.000  0.000  0.000  0.000  0.000  0.000  0.000  0.000  0.017
   21  0.017  0.000  0.000  0.000  0.000  0.000  0.000  0.000  0.000  0.017
   22  0.017  0.000  0.000  0.000  0.000  0.000  0.000  0.000  0.000  0.017
   23  0.017  0.000  0.000  0.000  0.000  0.000  0.000  0.000  0.000  0.017
   24  0.017  0.000  0.000  0.000  0.000  0.000  0.000  0.000  0.000  0.017
   25  0.017  0.000  0.000  0.000  0.000  0.000  0.000  0.000  0.000  0.017
   26  0.017  0.000  0.000  0.000  0.000  0.000  0.000  0.000  0.000  0.017
   27  0.017  0.000  0.000  0.000  0.000  0.000  0.000  0.000  0.000  0.017
   28  0.017  0.000  0.000  0.000  0.000  0.000  0.000  0.000  0.000  0.017
   29  0.017  0.000  0.000  0.000  0.000  0.000  0.000  0.000  0.000  0.017
   30  0.017  0.000  0.000  0.000  0.000  0.000  0.000  0.000  0.000  0.017
   31  0.017  0.000  0.000  0.000  0.000  0.000  0.000  0.000  0.000  0.017
   32  0.017  0.000  0.000  0.000  0.000  0.000  0.000  0.000  0.000  0.017
tot    0.555  0.000  0.000  0.000  0.000  0.000  0.000  0.000  0.000  0.555
 
band     2 # energy  -10.07560077 # occ.  1.00000000
 
ion      s     py     pz     px    dxy    dyz    dz2    dxz  x2-y2    tot
    1  0.022  0.000  0.001  0.000  0.000  0.000  0.000  0.000  0.000  0.023
    2  0.022  0.000  0.001  0.000  0.000  0.000  0.000  0.000  0.000  0.023
    3  0.022  0.000  0.001  0.000  0.000  0.000  0.000  0.000  0.000  0.023
    4  0.022  0.000  0.001  0.000  0.000  0.000  0.000  0.000  0.000  0.023
    5  0.022  0.000  0.001  0.000  0.000  0.000  0.000  0.000  0.000  0.023
    6  0.022  0.000  0.001  0.000  0.000  0.000  0.000  0.000  0.000  0.023
    7  0.022  0.000  0.001  0.000  0.000  0.000  0.000  0.000  0.000  0.023
    8  0.022  0.000  0.001  0.000  0.000  0.000  0.000  0.000  0.000  0.023
    9  0.011  0.000  0.002  0.000  0.000  0.000  0.000  0.000  0.000  0.013
   10  0.011  0.000  0.002  0.000  0.000  0.000  0.000  0.000  0.000  0.013
   11  0.011  0.000  0.002  0.000  0.000  0.000  0.000  0.000  0.000  0.013
   12  0.011  0.000  0.002  0.000  0.000  0.000  0.000  0.000  0.000  0.013
   13  0.011  0.000  0.002  0.000  0.000  0.000  0.000  0.000  0.000  0.013
   14  0.011  0.000  0.002  0.000  0.000  0.000  0.000  0.000  0.000  0.013
   15  0.011  0.000  0.002  0.000  0.000  0.000  0.000  0.000  0.000  0.013
   16  0.011  0.000  0.002  0.000  0.000  0.000  0.000  0.000  0.000  0.013
   17  0.011  0.000  0.002  0.000  0.000  0.000  0.000  0.000  0.000  0.013
   18  0.011  0.000  0.002  0.000  0.000  0.000  0.000  0.000  0.000  0.013
   19  0.011  0.000  0.002  0.000  0.000  0.000  0.000  0.000  0.000  0.013
   20  0.011  0.000  0.002  0.000  0.000  0.000  0.000  0.000  0.000  0.013
   21  0.011  0.000  0.002  0.000  0.000  0.000  0.000  0.000  0.000  0.013
   22  0.011  0.000  0.002  0.000  0.000  0.000  0.000  0.000  0.000  0.013
   23  0.011  0.000  0.002  0.000  0.000  0.000  0.000  0.000  0.000  0.013
   24  0.011  0.000  0.002  0.000  0.000  0.000  0.000  0.000  0.000  0.013
   25  0.022  0.000  0.001  0.000  0.000  0.000  0.000  0.000  0.000  0.023
   26  0.022  0.000  0.001  0.000  0.000  0.000  0.000  0.000  0.000  0.023
   27  0.022  0.000  0.001  0.000  0.000  0.000  0.000  0.000  0.000  0.023
   28  0.022  0.000  0.001  0.000  0.000  0.000  0.000  0.000  0.000  0.023
   29  0.022  0.000  0.001  0.000  0.000  0.000  0.000  0.000  0.000  0.023
   30  0.022  0.000  0.001  0.000  0.000  0.000  0.000  0.000  0.000  0.023
   31  0.022  0.000  0.001  0.000  0.000  0.000  0.000  0.000  0.000  0.023
   32  0.022  0.000  0.001  0.000  0.000  0.000  0.000  0.000  0.000  0.023
tot    0.527  0.000  0.042  0.000  0.000  0.000  0.000  0.000  0.000  0.569
 
band     3 # energy  -10.07560076 # occ.  1.00000000
 
ion      s     py     pz     px    dxy    dyz    dz2    dxz  x2-y2    tot
    1  0.011  0.000  0.002  0.000  0.000  0.000  0.000  0.000  0.000  0.013
    2  0.011  0.000  0.002  0.000  0.000  0.000  0.000  0.000  0.000  0.013
    3  0.011  0.000  0.002  0.000  0.000  0.000  0.000  0.000  0.000  0.013
    4  0.011  0.000  0.002  0.000  0.000  0.000  0.000  0.000  0.000  0.013
    5  0.011  0.000  0.002  0.000  0.000  0.000  0.000  0.000  0.000  0.013
    6  0.011  0.000  0.002  0.000  0.000  0.000  0.000  0.000  0.000  0.013
    7  0.011  0.000  0.002  0.000  0.000  0.000  0.000  0.000  0.000  0.013
    8  0.011  0.000  0.002  0.000  0.000  0.000  0.000  0.000  0.000  0.013
    9  0.022  0.000  0.001  0.000  0.000  0.000  0.000  0.000  0.000  0.023
   10  0.022  0.000  0.001  0.000  0.000  0.000  0.000  0.000  0.000  0.023
   11  0.022  0.000  0.001  0.000  0.000  0.000  0.000  0.000  0.000  0.023
   12  0.022  0.000  0.001  0.000  0.000  0.000  0.000  0.000  0.000  0.023
   13  0.022  0.000  0.001  0.000  0.000  0.000  0.000  0.000  0.000  0.023
   14  0.022  0.000  0.001  0.000  0.000  0.000  0.000  0.000  0.000  0.023
   15  0.022  0.000  0.001  0.000  0.000  0.000  0.000  0.000  0.000  0.023
   16  0.022  0.000  0.001  0.000  0.000  0.000  0.000  0.000  0.000  0.023
   17  0.022  0.000  0.001  0.000  0.000  0.000  0.000  0.000  0.000  0.023
   18  0.022  0.000  0.001  0.000  0.000  0.000  0.000  0.000  0.000  0.023
   19  0.022  0.000  0.001  0.000  0.000  0.000  0.000  0.000  0.000  0.023
   20  0.022  0.000  0.001  0.000  0.000  0.000  0.000  0.000  0.000  0.023
   21  0.022  0.000  0.001  0.000  0.000  0.000  0.000  0.000  0.000  0.023
   22  0.022  0.000  0.001  0.000  0.000  0.000  0.000  0.000  0.000  0.023
   23  0.022  0.000  0.001  0.000  0.000  0.000  0.000  0.000  0.000  0.023
   24  0.022  0.000  0.001  0.000  0.000  0.000  0.000  0.000  0.000  0.023
   25  0.011  0.000  0.002  0.000  0.000  0.000  0.000  0.000  0.000  0.013
   26  0.011  0.000  0.002  0.000  0.000  0.000  0.000  0.000  0.000  0.013
   27  0.011  0.000  0.002  0.000  0.000  0.000  0.000  0.000  0.000  0.013
   28  0.011  0.000  0.002  0.000  0.000  0.000  0.000  0.000  0.000  0.013
   29  0.011  0.000  0.002  0.000  0.000  0.000  0.000  0.000  0.000  0.013
   30  0.011  0.000  0.002  0.000  0.000  0.000  0.000  0.000  0.000  0.013
   31  0.011  0.000  0.002  0.000  0.000  0.000  0.000  0.000  0.000  0.013
   32  0.011  0.000  0.002  0.000  0.000  0.000  0.000  0.000  0.000  0.013
tot    0.527  0.000  0.042  0.000  0.000  0.000  0.000  0.000  0.000  0.569
 
band     4 # energy   -6.52704735 # occ.  1.00000000
 
ion      s     py     pz     px    dxy    dyz    dz2    dxz  x2-y2    tot
    1  0.017  0.001  0.000  0.002  0.000  0.000  0.000  0.000  0.000  0.020
    2  0.017  0.001  0.000  0.002  0.000  0.000  0.000  0.000  0.000  0.020
    3  0.017  0.001  0.000  0.002  0.000  0.000  0.000  0.000  0.000  0.020
    4  0.017  0.001  0.000  0.002  0.000  0.000  0.000  0.000  0.000  0.020
    5  0.017  0.001  0.000  0.002  0.000  0.000  0.000  0.000  0.000  0.020
    6  0.017  0.001  0.000  0.002  0.000  0.000  0.000  0.000  0.000  0.020
    7  0.017  0.001  0.000  0.002  0.000  0.000  0.000  0.000  0.000  0.020
    8  0.017  0.001  0.000  0.002  0.000  0.000  0.000  0.000  0.000  0.020
    9  0.017  0.001  0.000  0.002  0.000  0.000  0.000  0.000  0.000  0.020
   10  0.017  0.001  0.000  0.002  0.000  0.000  0.000  0.000  0.000  0.020
   11  0.017  0.001  0.000  0.002  0.000  0.000  0.000  0.000  0.000  0.020
   12  0.017  0.001  0.000  0.002  0.000  0.000  0.000  0.000  0.000  0.020
   13  0.017  0.001  0.000  0.002  0.000  0.000  0.000  0.000  0.000  0.020
   14  0.017  0.001  0.000  0.002  0.000  0.000  0.000  0.000  0.000  0.020
   15  0.017  0.001  0.000  0.002  0.000  0.000  0.000  0.000  0.000  0.020
   16  0.017  0.001  0.000  0.002  0.000  0.000  0.000  0.000  0.000  0.020
   17  0.017  0.001  0.000  0.002  0.000  0.000  0.000  0.000  0.000  0.020
   18  0.017  0.001  0.000  0.002  0.000  0.000  0.000  0.000  0.000  0.020
   19  0.017  0.001  0.000  0.002  0.000  0.000  0.000  0.000  0.000  0.020
   20  0.017  0.001  0.000  0.002  0.000  0.000  0.000  0.000  0.000  0.020
   21  0.017  0.001  0.000  0.002  0.000  0.000  0.000  0.000  0.000  0.020
   22  0.017  0.001  0.000  0.002  0.000  0.000  0.000  0.000  0.000  0.020
   23  0.017  0.001  0.000  0.002  0.000  0.000  0.000  0.000  0.000  0.020
   24  0.017  0.001  0.000  0.002  0.000  0.000  0.000  0.000  0.000  0.020
   25  0.017  0.001  0.000  0.002  0.000  0.000  0.000  0.000  0.000  0.020
   26  0.017  0.001  0.000  0.002  0.000  0.000  0.000  0.000  0.000  0.020
   27  0.017  0.001  0.000  0.002  0.000  0.000  0.000  0.000  0.000  0.020
   28  0.017  0.001  0.000  0.002  0.000  0.000  0.000  0.000  0.000  0.020
   29  0.017  0.001  0.000  0.002  0.000  0.000  0.000  0.000  0.000  0.020
   30  0.017  0.001  0.000  0.002  0.000  0.000  0.000  0.000  0.000  0.020
   31  0.017  0.001  0.000  0.002  0.000  0.000  0.000  0.000  0.000  0.020
   32  0.017  0.001  0.000  0.002  0.000  0.000  0.000  0.000  0.000  0.020
tot    0.551  0.020  0.001  0.059  0.000  0.000  0.000  0.000  0.000  0.630
 
band     5 # energy   -6.52700373 # occ.  1.00000000
 
ion      s     py     pz     px    dxy    dyz    dz2    dxz  x2-y2    tot
    1  0.017  0.001  0.000  0.002  0.000  0.000  0.000  0.000  0.000  0.020
    2  0.017  0.001  0.000  0.002  0.000  0.000  0.000  0.000  0.000  0.020
    3  0.017  0.001  0.000  0.002  0.000  0.000  0.000  0.000  0.000  0.020
    4  0.017  0.001  0.000  0.002  0.000  0.000  0.000  0.000  0.000  0.020
    5  0.017  0.001  0.000  0.002  0.000  0.000  0.000  0.000  0.000  0.020
    6  0.017  0.001  0.000  0.002  0.000  0.000  0.000  0.000  0.000  0.020
    7  0.017  0.001  0.000  0.002  0.000  0.000  0.000  0.000  0.000  0.020
    8  0.017  0.001  0.000  0.002  0.000  0.000  0.000  0.000  0.000  0.020
    9  0.017  0.001  0.000  0.002  0.000  0.000  0.000  0.000  0.000  0.020
   10  0.017  0.001  0.000  0.002  0.000  0.000  0.000  0.000  0.000  0.020
   11  0.017  0.001  0.000  0.002  0.000  0.000  0.000  0.000  0.000  0.020
   12  0.017  0.001  0.000  0.002  0.000  0.000  0.000  0.000  0.000  0.020
   13  0.017  0.001  0.000  0.002  0.000  0.000  0.000  0.000  0.000  0.020
   14  0.017  0.001  0.000  0.002  0.000  0.000  0.000  0.000  0.000  0.020
   15  0.017  0.001  0.000  0.002  0.000  0.000  0.000  0.000  0.000  0.020
   16  0.017  0.001  0.000  0.002  0.000  0.000  0.000  0.000  0.000  0.020
   17  0.017  0.001  0.000  0.002  0.000  0.000  0.000  0.000  0.000  0.020
   18  0.017  0.001  0.000  0.002  0.000  0.000  0.000  0.000  0.000  0.020
   19  0.017  0.001  0.000  0.002  0.000  0.000  0.000  0.000  0.000  0.020
   20  0.017  0.001  0.000  0.002  0.000  0.000  0.000  0.000  0.000  0.020
   21  0.017  0.001  0.000  0.002  0.000  0.000  0.000  0.000  0.000  0.020
   22  0.017  0.001  0.000  0.002  0.000  0.000  0.000  0.000  0.000  0.020
   23  0.017  0.001  0.000  0.002  0.000  0.000  0.000  0.000  0.000  0.020
   24  0.017  0.001  0.000  0.002  0.000  0.000  0.000  0.000  0.000  0.020
   25  0.017  0.001  0.000  0.002  0.000  0.000  0.000  0.000  0.000  0.020
   26  0.017  0.001  0.000  0.002  0.000  0.000  0.000  0.000  0.000  0.020
   27  0.017  0.001  0.000  0.002  0.000  0.000  0.000  0.000  0.000  0.020
   28  0.017  0.001  0.000  0.002  0.000  0.000  0.000  0.000  0.000  0.020
   29  0.017  0.001  0.000  0.002  0.000  0.000  0.000  0.000  0.000  0.020
   30  0.017  0.001  0.000  0.002  0.000  0.000  0.000  0.000  0.000  0.020
   31  0.017  0.001  0.000  0.002  0.000  0.000  0.000  0.000  0.000  0.020
   32  0.017  0.001  0.000  0.002  0.000  0.000  0.000  0.000  0.000  0.020
tot    0.551  0.020  0.001  0.059  0.000  0.000  0.000  0.000  0.000  0.630
 
band     6 # energy   -6.52700167 # occ.  1.00000000
 
ion      s     py     pz     px    dxy    dyz    dz2    dxz  x2-y2    tot
    1  0.017  0.002  0.000  0.000  0.000  0.000  0.000  0.000  0.000  0.020
    2  0.017  0.002  0.000  0.000  0.000  0.000  0.000  0.000  0.000  0.020
    3  0.017  0.002  0.000  0.000  0.000  0.000  0.000  0.000  0.000  0.020
    4  0.017  0.002  0.000  0.000  0.000  0.000  0.000  0.000  0.000  0.020
    5  0.017  0.002  0.000  0.000  0.000  0.000  0.000  0.000  0.000  0.020
    6  0.017  0.002  0.000  0.000  0.000  0.000  0.000  0.000  0.000  0.020
    7  0.017  0.002  0.000  0.000  0.000  0.000  0.000  0.000  0.000  0.020
    8  0.017  0.002  0.000  0.000  0.000  0.000  0.000  0.000  0.000  0.020
    9  0.017  0.002  0.000  0.000  0.000  0.000  0.000  0.000  0.000  0.020
   10  0.017  0.002  0.000  0.000  0.000  0.000  0.000  0.000  0.000  0.020
   11  0.017  0.002  0.000  0.000  0.000  0.000  0.000  0.000  0.000  0.020
   12  0.017  0.002  0.000  0.000  0.000  0.000  0.000  0.000  0.000  0.020
   13  0.017  0.002  0.000  0.000  0.000  0.000  0.000  0.000  0.000  0.020
   14  0.017  0.002  0.000  0.000  0.000  0.000  0.000  0.000  0.000  0.020
   15  0.017  0.002  0.000  0.000  0.000  0.000  0.000  0.000  0.000  0.020
   16  0.017  0.002  0.000  0.000  0.000  0.000  0.000  0.000  0.000  0.020
   17  0.017  0.002  0.000  0.000  0.000  0.000  0.000  0.000  0.000  0.020
   18  0.017  0.002  0.000  0.000  0.000  0.000  0.000  0.000  0.000  0.020
   19  0.017  0.002  0.000  0.000  0.000  0.000  0.000  0.000  0.000  0.020
   20  0.017  0.002  0.000  0.000  0.000  0.000  0.000  0.000  0.000  0.020
   21  0.017  0.002  0.000  0.000  0.000  0.000  0.000  0.000  0.000  0.020
   22  0.017  0.002  0.000  0.000  0.000  0.000  0.000  0.000  0.000  0.020
   23  0.017  0.002  0.000  0.000  0.000  0.000  0.000  0.000  0.000  0.020
   24  0.017  0.002  0.000  0.000  0.000  0.000  0.000  0.000  0.000  0.020
   25  0.017  0.002  0.000  0.000  0.000  0.000  0.000  0.000  0.000  0.020
   26  0.017  0.002  0.000  0.000  0.000  0.000  0.000  0.000  0.000  0.020
   27  0.017  0.002  0.000  0.000  0.000  0.000  0.000  0.000  0.000  0.020
   28  0.017  0.002  0.000  0.000  0.000  0.000  0.000  0.000  0.000  0.020
   29  0.017  0.002  0.000  0.000  0.000  0.000  0.000  0.000  0.000  0.020
   30  0.017  0.002  0.000  0.000  0.000  0.000  0.000  0.000  0.000  0.020
   31  0.017  0.002  0.000  0.000  0.000  0.000  0.000  0.000  0.000  0.020
   32  0.017  0.002  0.000  0.000  0.000  0.000  0.000  0.000  0.000  0.020
tot    0.551  0.079  0.001  0.000  0.000  0.000  0.000  0.000  0.000  0.630
 
band     7 # energy   -6.20701462 # occ.  1.00000000
 
ion      s     py     pz     px    dxy    dyz    dz2    dxz  x2-y2    tot
    1  0.018  0.000  0.002  0.000  0.000  0.000  0.000  0.000  0.000  0.020
    2  0.018  0.000  0.002  0.000  0.000  0.000  0.000  0.000  0.000  0.020
    3  0.018  0.000  0.002  0.000  0.000  0.000  0.000  0.000  0.000  0.020
    4  0.018  0.000  0.002  0.000  0.000  0.000  0.000  0.000  0.000  0.020
    5  0.018  0.000  0.002  0.000  0.000  0.000  0.000  0.000  0.000  0.020
    6  0.018  0.000  0.002  0.000  0.000  0.000  0.000  0.000  0.000  0.020
    7  0.018  0.000  0.002  0.000  0.000  0.000  0.000  0.000  0.000  0.020
    8  0.018  0.000  0.002  0.000  0.000  0.000  0.000  0.000  0.000  0.020
    9  0.018  0.000  0.002  0.000  0.000  0.000  0.000  0.000  0.000  0.020
   10  0.018  0.000  0.002  0.000  0.000  0.000  0.000  0.000  0.000  0.020
   11  0.018  0.000  0.002  0.000  0.000  0.000  0.000  0.000  0.000  0.020
   12  0.018  0.000  0.002  0.000  0.000  0.000  0.000  0.000  0.000  0.020
   13  0.018  0.000  0.002  0.000  0.000  0.000  0.000  0.000  0.000  0.020
   14  0.018  0.000  0.002  0.000  0.000  0.000  0.000  0.000  0.000  0.020
   15  0.018  0.000  0.002  0.000  0.000  0.000  0.000  0.000  0.000  0.020
   16  0.018  0.000  0.002  0.000  0.000  0.000  0.000  0.000  0.000  0.020
   17  0.018  0.000  0.002  0.000  0.000  0.000  0.000  0.000  0.000  0.020
   18  0.018  0.000  0.002  0.000  0.000  0.000  0.000  0.000  0.000  0.020
   19  0.018  0.000  0.002  0.000  0.000  0.000  0.000  0.000  0.000  0.020
   20  0.018  0.000  0.002  0.000  0.000  0.000  0.000  0.000  0.000  0.020
   21  0.018  0.000  0.002  0.000  0.000  0.000  0.000  0.000  0.000  0.020
   22  0.018  0.000  0.002  0.000  0.000  0.000  0.000  0.000  0.000  0.020
   23  0.018  0.000  0.002  0.000  0.000  0.000  0.000  0.000  0.000  0.020
   24  0.018  0.000  0.002  0.000  0.000  0.000  0.000  0.000  0.000  0.020
   25  0.018  0.000  0.002  0.000  0.000  0.000  0.000  0.000  0.000  0.020
   26  0.018  0.000  0.002  0.000  0.000  0.000  0.000  0.000  0.000  0.020
   27  0.018  0.000  0.002  0.000  0.000  0.000  0.000  0.000  0.000  0.020
   28  0.018  0.000  0.002  0.000  0.000  0.000  0.000  0.000  0.000  0.020
   29  0.018  0.000  0.002  0.000  0.000  0.000  0.000  0.000  0.000  0.020
   30  0.018  0.000  0.002  0.000  0.000  0.000  0.000  0.000  0.000  0.020
   31  0.018  0.000  0.002  0.000  0.000  0.000  0.000  0.000  0.000  0.020
   32  0.018  0.000  0.002  0.000  0.000  0.000  0.000  0.000  0.000  0.020
tot    0.588  0.000  0.061  0.000  0.000  0.000  0.000  0.000  0.000  0.649
 
band     8 # energy   -5.03261743 # occ.  1.00000000
 
ion      s     py     pz     px    dxy    dyz    dz2    dxz  x2-y2    tot
    1  0.026  0.000  0.001  0.001  0.000  0.000  0.000  0.000  0.000  0.029
    2  0.026  0.000  0.001  0.001  0.000  0.000  0.000  0.000  0.000  0.029
    3  0.026  0.000  0.001  0.001  0.000  0.000  0.000  0.000  0.000  0.029
    4  0.026  0.000  0.001  0.001  0.000  0.000  0.000  0.000  0.000  0.029
    5  0.026  0.000  0.001  0.001  0.000  0.000  0.000  0.000  0.000  0.029
    6  0.026  0.000  0.001  0.001  0.000  0.000  0.000  0.000  0.000  0.029
    7  0.026  0.000  0.001  0.001  0.000  0.000  0.000  0.000  0.000  0.029
    8  0.026  0.000  0.001  0.001  0.000  0.000  0.000  0.000  0.000  0.029
    9  0.007  0.001  0.002  0.002  0.000  0.000  0.000  0.000  0.000  0.012
   10  0.007  0.001  0.002  0.002  0.000  0.000  0.000  0.000  0.000  0.012
   11  0.007  0.001  0.002  0.002  0.000  0.000  0.000  0.000  0.000  0.012
   12  0.007  0.001  0.002  0.002  0.000  0.000  0.000  0.000  0.000  0.012
   13  0.007  0.001  0.002  0.002  0.000  0.000  0.000  0.000  0.000  0.012
   14  0.007  0.001  0.002  0.002  0.000  0.000  0.000  0.000  0.000  0.012
   15  0.007  0.001  0.002  0.002  0.000  0.000  0.000  0.000  0.000  0.012
   16  0.007  0.001  0.002  0.002  0.000  0.000  0.000  0.000  0.000  0.012
   17  0.007  0.001  0.002  0.002  0.000  0.000  0.000  0.000  0.000  0.012
   18  0.007  0.001  0.002  0.002  0.000  0.000  0.000  0.000  0.000  0.012
   19  0.007  0.001  0.002  0.002  0.000  0.000  0.000  0.000  0.000  0.012
   20  0.007  0.001  0.002  0.002  0.000  0.000  0.000  0.000  0.000  0.012
   21  0.007  0.001  0.002  0.002  0.000  0.000  0.000  0.000  0.000  0.012
   22  0.007  0.001  0.002  0.002  0.000  0.000  0.000  0.000  0.000  0.012
   23  0.007  0.001  0.002  0.002  0.000  0.000  0.000  0.000  0.000  0.012
   24  0.007  0.001  0.002  0.002  0.000  0.000  0.000  0.000  0.000  0.012
   25  0.026  0.000  0.001  0.001  0.000  0.000  0.000  0.000  0.000  0.029
   26  0.026  0.000  0.001  0.001  0.000  0.000  0.000  0.000  0.000  0.029
   27  0.026  0.000  0.001  0.001  0.000  0.000  0.000  0.000  0.000  0.029
   28  0.026  0.000  0.001  0.001  0.000  0.000  0.000  0.000  0.000  0.029
   29  0.026  0.000  0.001  0.001  0.000  0.000  0.000  0.000  0.000  0.029
   30  0.026  0.000  0.001  0.001  0.000  0.000  0.000  0.000  0.000  0.029
   31  0.026  0.000  0.001  0.001  0.000  0.000  0.000  0.000  0.000  0.029
   32  0.026  0.000  0.001  0.001  0.000  0.000  0.000  0.000  0.000  0.029
tot    0.533  0.018  0.043  0.054  0.000  0.000  0.000  0.000  0.000  0.648
 
band     9 # energy   -5.03261740 # occ.  1.00000000
 
ion      s     py     pz     px    dxy    dyz    dz2    dxz  x2-y2    tot
    1  0.007  0.001  0.002  0.002  0.000  0.000  0.000  0.000  0.000  0.012
    2  0.007  0.001  0.002  0.002  0.000  0.000  0.000  0.000  0.000  0.012
    3  0.007  0.001  0.002  0.002  0.000  0.000  0.000  0.000  0.000  0.012
    4  0.007  0.001  0.002  0.002  0.000  0.000  0.000  0.000  0.000  0.012
    5  0.007  0.001  0.002  0.002  0.000  0.000  0.000  0.000  0.000  0.012
    6  0.007  0.001  0.002  0.002  0.000  0.000  0.000  0.000  0.000  0.012
    7  0.007  0.001  0.002  0.002  0.000  0.000  0.000  0.000  0.000  0.012
    8  0.007  0.001  0.002  0.002  0.000  0.000  0.000  0.000  0.000  0.012
    9  0.026  0.000  0.001  0.001  0.000  0.000  0.000  0.000  0.000  0.029
   10  0.026  0.000  0.001  0.001  0.000  0.000  0.000  0.000  0.000  0.029
   11  0.026  0.000  0.001  0.001  0.000  0.000  0.000  0.000  0.000  0.029
   12  0.026  0.000  0.001  0.001  0.000  0.000  0.000  0.000  0.000  0.029
   13  0.026  0.000  0.001  0.001  0.000  0.000  0.000  0.000  0.000  0.029
   14  0.026  0.000  0.001  0.001  0.000  0.000  0.000  0.000  0.000  0.029
   15  0.026  0.000  0.001  0.001  0.000  0.000  0.000  0.000  0.000  0.029
   16  0.026  0.000  0.001  0.001  0.000  0.000  0.000  0.000  0.000  0.029
   17  0.026  0.000  0.001  0.001  0.000  0.000  0.000  0.000  0.000  0.029
   18  0.026  0.000  0.001  0.001  0.000  0.000  0.000  0.000  0.000  0.029
   19  0.026  0.000  0.001  0.001  0.000  0.000  0.000  0.000  0.000  0.029
   20  0.026  0.000  0.001  0.001  0.000  0.000  0.000  0.000  0.000  0.029
   21  0.026  0.000  0.001  0.001  0.000  0.000  0.000  0.000  0.000  0.029
   22  0.026  0.000  0.001  0.001  0.000  0.000  0.000  0.000  0.000  0.029
   23  0.026  0.000  0.001  0.001  0.000  0.000  0.000  0.000  0.000  0.029
   24  0.026  0.000  0.001  0.001  0.000  0.000  0.000  0.000  0.000  0.029
   25  0.007  0.001  0.002  0.002  0.000  0.000  0.000  0.000  0.000  0.012
   26  0.007  0.001  0.002  0.002  0.000  0.000  0.000  0.000  0.000  0.012
   27  0.007  0.001  0.002  0.002  0.000  0.000  0.000  0.000  0.000  0.012
   28  0.007  0.001  0.002  0.002  0.000  0.000  0.000  0.000  0.000  0.012
   29  0.007  0.001  0.002  0.002  0.000  0.000  0.000  0.000  0.000  0.012
   30  0.007  0.001  0.002  0.002  0.000  0.000  0.000  0.000  0.000  0.012
   31  0.007  0.001  0.002  0.002  0.000  0.000  0.000  0.000  0.000  0.012
   32  0.007  0.001  0.002  0.002  0.000  0.000  0.000  0.000  0.000  0.012
tot    0.533  0.018  0.043  0.054  0.000  0.000  0.000  0.000  0.000  0.648
 
band    10 # energy   -5.03257783 # occ.  1.00000000
 
ion      s     py     pz     px    dxy    dyz    dz2    dxz  x2-y2    tot
    1  0.007  0.001  0.002  0.002  0.000  0.000  0.000  0.000  0.000  0.012
    2  0.007  0.001  0.002  0.002  0.000  0.000  0.000  0.000  0.000  0.012
    3  0.007  0.001  0.002  0.002  0.000  0.000  0.000  0.000  0.000  0.012
    4  0.007  0.001  0.002  0.002  0.000  0.000  0.000  0.000  0.000  0.012
    5  0.007  0.001  0.002  0.002  0.000  0.000  0.000  0.000  0.000  0.012
    6  0.007  0.001  0.002  0.002  0.000  0.000  0.000  0.000  0.000  0.012
    7  0.007  0.001  0.002  0.002  0.000  0.000  0.000  0.000  0.000  0.012
    8  0.007  0.001  0.002  0.002  0.000  0.000  0.000  0.000  0.000  0.012
    9  0.026  0.000  0.001  0.001  0.000  0.000  0.000  0.000  0.000  0.029
   10  0.026  0.000  0.001  0.001  0.000  0.000  0.000  0.000  0.000  0.029
   11  0.026  0.000  0.001  0.001  0.000  0.000  0.000  0.000  0.000  0.029
   12  0.026  0.000  0.001  0.001  0.000  0.000  0.000  0.000  0.000  0.029
   13  0.026  0.000  0.001  0.001  0.000  0.000  0.000  0.000  0.000  0.029
   14  0.026  0.000  0.001  0.001  0.000  0.000  0.000  0.000  0.000  0.029
   15  0.026  0.000  0.001  0.001  0.000  0.000  0.000  0.000  0.000  0.029
   16  0.026  0.000  0.001  0.001  0.000  0.000  0.000  0.000  0.000  0.029
   17  0.026  0.000  0.001  0.001  0.000  0.000  0.000  0.000  0.000  0.029
   18  0.026  0.000  0.001  0.001  0.000  0.000  0.000  0.000  0.000  0.029
   19  0.026  0.000  0.001  0.001  0.000  0.000  0.000  0.000  0.000  0.029
   20  0.026  0.000  0.001  0.001  0.000  0.000  0.000  0.000  0.000  0.029
   21  0.026  0.000  0.001  0.001  0.000  0.000  0.000  0.000  0.000  0.029
   22  0.026  0.000  0.001  0.001  0.000  0.000  0.000  0.000  0.000  0.029
   23  0.026  0.000  0.001  0.001  0.000  0.000  0.000  0.000  0.000  0.029
   24  0.026  0.000  0.001  0.001  0.000  0.000  0.000  0.000  0.000  0.029
   25  0.007  0.001  0.002  0.002  0.000  0.000  0.000  0.000  0.000  0.012
   26  0.007  0.001  0.002  0.002  0.000  0.000  0.000  0.000  0.000  0.012
   27  0.007  0.001  0.002  0.002  0.000  0.000  0.000  0.000  0.000  0.012
   28  0.007  0.001  0.002  0.002  0.000  0.000  0.000  0.000  0.000  0.012
   29  0.007  0.001  0.002  0.002  0.000  0.000  0.000  0.000  0.000  0.012
   30  0.007  0.001  0.002  0.002  0.000  0.000  0.000  0.000  0.000  0.012
   31  0.007  0.001  0.002  0.002  0.000  0.000  0.000  0.000  0.000  0.012
   32  0.007  0.001  0.002  0.002  0.000  0.000  0.000  0.000  0.000  0.012
tot    0.533  0.018  0.043  0.054  0.000  0.000  0.000  0.000  0.000  0.648
 
band    11 # energy   -5.03257782 # occ.  1.00000000
 
ion      s     py     pz     px    dxy    dyz    dz2    dxz  x2-y2    tot
    1  0.026  0.000  0.001  0.001  0.000  0.000  0.000  0.000  0.000  0.029
    2  0.026  0.000  0.001  0.001  0.000  0.000  0.000  0.000  0.000  0.029
    3  0.026  0.000  0.001  0.001  0.000  0.000  0.000  0.000  0.000  0.029
    4  0.026  0.000  0.001  0.001  0.000  0.000  0.000  0.000  0.000  0.029
    5  0.026  0.000  0.001  0.001  0.000  0.000  0.000  0.000  0.000  0.029
    6  0.026  0.000  0.001  0.001  0.000  0.000  0.000  0.000  0.000  0.029
    7  0.026  0.000  0.001  0.001  0.000  0.000  0.000  0.000  0.000  0.029
    8  0.026  0.000  0.001  0.001  0.000  0.000  0.000  0.000  0.000  0.029
    9  0.007  0.001  0.002  0.002  0.000  0.000  0.000  0.000  0.000  0.012
   10  0.007  0.001  0.002  0.002  0.000  0.000  0.000  0.000  0.000  0.012
   11  0.007  0.001  0.002  0.002  0.000  0.000  0.000  0.000  0.000  0.012
   12  0.007  0.001  0.002  0.002  0.000  0.000  0.000  0.000  0.000  0.012
   13  0.007  0.001  0.002  0.002  0.000  0.000  0.000  0.000  0.000  0.012
   14  0.007  0.001  0.002  0.002  0.000  0.000  0.000  0.000  0.000  0.012
   15  0.007  0.001  0.002  0.002  0.000  0.000  0.000  0.000  0.000  0.012
   16  0.007  0.001  0.002  0.002  0.000  0.000  0.000  0.000  0.000  0.012
   17  0.007  0.001  0.002  0.002  0.000  0.000  0.000  0.000  0.000  0.012
   18  0.007  0.001  0.002  0.002  0.000  0.000  0.000  0.000  0.000  0.012
   19  0.007  0.001  0.002  0.002  0.000  0.000  0.000  0.000  0.000  0.012
   20  0.007  0.001  0.002  0.002  0.000  0.000  0.000  0.000  0.000  0.012
   21  0.007  0.001  0.002  0.002  0.000  0.000  0.000  0.000  0.000  0.012
   22  0.007  0.001  0.002  0.002  0.000  0.000  0.000  0.000  0.000  0.012
   23  0.007  0.001  0.002  0.002  0.000  0.000  0.000  0.000  0.000  0.012
   24  0.007  0.001  0.002  0.002  0.000  0.000  0.000  0.000  0.000  0.012
   25  0.026  0.000  0.001  0.001  0.000  0.000  0.000  0.000  0.000  0.029
   26  0.026  0.000  0.001  0.001  0.000  0.000  0.000  0.000  0.000  0.029
   27  0.026  0.000  0.001  0.001  0.000  0.000  0.000  0.000  0.000  0.029
   28  0.026  0.000  0.001  0.001  0.000  0.000  0.000  0.000  0.000  0.029
   29  0.026  0.000  0.001  0.001  0.000  0.000  0.000  0.000  0.000  0.029
   30  0.026  0.000  0.001  0.001  0.000  0.000  0.000  0.000  0.000  0.029
   31  0.026  0.000  0.001  0.001  0.000  0.000  0.000  0.000  0.000  0.029
   32  0.026  0.000  0.001  0.001  0.000  0.000  0.000  0.000  0.000  0.029
tot    0.533  0.018  0.043  0.054  0.000  0.000  0.000  0.000  0.000  0.648
 
band    12 # energy   -5.03257585 # occ.  1.00000000
 
ion      s     py     pz     px    dxy    dyz    dz2    dxz  x2-y2    tot
    1  0.007  0.003  0.002  0.000  0.000  0.000  0.000  0.000  0.000  0.012
    2  0.007  0.003  0.002  0.000  0.000  0.000  0.000  0.000  0.000  0.012
    3  0.007  0.003  0.002  0.000  0.000  0.000  0.000  0.000  0.000  0.012
    4  0.007  0.003  0.002  0.000  0.000  0.000  0.000  0.000  0.000  0.012
    5  0.007  0.003  0.002  0.000  0.000  0.000  0.000  0.000  0.000  0.012
    6  0.007  0.003  0.002  0.000  0.000  0.000  0.000  0.000  0.000  0.012
    7  0.007  0.003  0.002  0.000  0.000  0.000  0.000  0.000  0.000  0.012
    8  0.007  0.003  0.002  0.000  0.000  0.000  0.000  0.000  0.000  0.012