    8    8  100    2
  0.5414167E+01  0.3511887E-09  0.3511887E-09  0.3511887E-09  0.1500000E-16
   1.0000000000000000E-004
  CAR 
 unknown system                          
     32     35     28
 
  0.3742002E-15  0.3742002E-15  0.3742002E-15  0.1953125E-02
    1      -11.524076    -11.524062   1.000000   1.000000
    2       -1.720185     -1.720171   1.000000   1.000000
    3       -1.720124     -1.720110   1.000000   1.000000
    4       -1.720123     -1.720109   1.000000   1.000000
    5       -1.720117     -1.720103   1.000000   1.000000
    6       -1.720055     -1.720041   1.000000   1.000000
    7       -1.720055     -1.720041   1.000000   1.000000
    8        4.938017      4.938029   1.000000   1.000000
    9        4.938018      4.938030   1.000000   1.000000
   10        4.938039      4.938051   1.000000   1.000000
   11        4.938072      4.938084   1.000000   1.000000
   12        4.938093      4.938105   1.000000   1.000000
   13        4.938093      4.938105   1.000000   1.000000
   14       12.310458     12.310471   1.000000   1.000000
   15       12.310458     12.310471   1.000000   1.000000
   16       12.310574     12.310587   1.000000   1.000000
   17       17.399581     17.399593   0.000000   0.000000
   18       17.399582     17.399593   0.000000   0.000000
   19       17.399596     17.399607   0.000000   0.000000
   20       17.399607     17.399619   0.000000   0.000000
   21       17.399608     17.399619   0.000000   0.000000
   22       17.399704     17.399715   0.000000   0.000000
   23       18.357900     18.357913   0.000000   0.000000
   24       18.357986     18.357999   0.000000   0.000000
   25       18.357986     18.357999   0.000000   0.000000
   26       29.611922     29.611942   0.000000   0.000000
   27       31.836061     31.836061   0.000000   0.000000
   28       31.836069     31.836085   0.000000   0.000000
 
  0.1250000E+00  0.3742002E-15  0.3742002E-15  0.1171875E-01
    1      -11.363061    -11.363047   1.000000   1.000000
    2       -3.898427     -3.898413   1.000000   1.000000
    3       -1.603878     -1.603864   1.000000   1.000000
    4       -1.603852     -1.603838   1.000000   1.000000
    5       -1.603841     -1.603827   1.000000   1.000000
    6       -1.603783     -1.603768   1.000000   1.000000
    7        0.615961      0.615975   1.000000   1.000000
    8        4.577352      4.577364   1.000000   1.000000
    9        4.577378      4.577390   1.000000   1.000000
   10        4.577389      4.577401   1.000000   1.000000
   11        4.577415      4.577427   1.000000   1.000000
   12        5.098852      5.098864   1.000000   1.000000
   13        5.098878      5.098890   1.000000   1.000000
   14       11.634126     11.634140   1.000000   1.000000
   15       11.634191     11.634204   1.000000   1.000000
   16       11.961694     11.961708   1.000000   1.000000
   17       16.957267     16.957278   0.000000   0.000000
   18       18.054421     18.054432   0.000000   0.000000
   19       18.054433     18.054445   0.000000   0.000000
   20       18.054449     18.054460   0.000000   0.000000
   21       18.054505     18.054517   0.000000   0.000000
   22       18.202604     18.202615   0.000000   0.000000
   23       18.249747     18.249760   0.000000   0.000000
   24       19.187725     19.187739   0.000000   0.000000
   25       19.187770     19.187783   0.000000   0.000000
   26       29.560795     29.560814   0.000000   0.000000
   27       31.234759     31.234973   0.000000   0.000000
   28       31.235016     31.236407   0.000000   0.000000
 
  0.2500000E+00  0.3742002E-15  0.3742002E-15  0.1171875E-01
    1      -10.881138    -10.881124   1.000000   1.000000
    2       -5.857168     -5.857155   1.000000   1.000000
    3       -1.279491     -1.279477   1.000000   1.000000
    4       -1.279463     -1.279448   1.000000   1.000000
    5       -1.279451     -1.279436   1.000000   1.000000
    6       -1.279386     -1.279372   1.000000   1.000000
    7        3.021711      3.021725   1.000000   1.000000
    8        3.730337      3.730348   1.000000   1.000000
    9        3.730355      3.730367   1.000000   1.000000
   10        3.730370      3.730382   1.000000   1.000000
   11        3.730387      3.730399   1.000000   1.000000
   12        5.579279      5.579291   1.000000   1.000000
   13        5.579307      5.579319   1.000000   1.000000
   14       10.238523     10.238536   1.000000   1.000000
   15       10.238571     10.238584   1.000000   1.000000
   16       10.971180     10.971194   1.000000   1.000000
   17       16.813203     16.813216   0.000000   0.000000
   18       17.944667     17.944680   0.000000   0.000000
   19       19.445476     19.445486   0.000000   0.000000
   20       19.778638     19.778650   0.000000   0.000000
   21       19.778649     19.778661   0.000000   0.000000
   22       19.778673     19.778685   0.000000   0.000000
   23       19.778722     19.778733   0.000000   0.000000
   24       21.025275     21.025289   0.000000   0.000000
   25       21.025305     21.025319   0.000000   0.000000
   26       28.643896     28.643912   0.000000   0.000000
   27       29.720317     29.720333   0.000000   0.000000
   28       29.720345     29.720361   0.000000   0.000000
 
  0.3750000E+00  0.3742002E-15  0.3742002E-15  0.1171875E-01
    1      -10.081319    -10.081305   1.000000   1.000000
    2       -7.556192     -7.556178   1.000000   1.000000
    3       -0.854266     -0.854251   1.000000   1.000000
    4       -0.854233     -0.854218   1.000000   1.000000
    5       -0.854219     -0.854204   1.000000   1.000000
    6       -0.854145     -0.854130   1.000000   1.000000
    7        2.851625      2.851636   1.000000   1.000000
    8        2.851633      2.851644   1.000000   1.000000
    9        2.851658      2.851669   1.000000   1.000000
   10        2.851664      2.851675   1.000000   1.000000
   11        5.382178      5.382193   1.000000   1.000000
   12        6.368409      6.368421   1.000000   1.000000
   13        6.368438      6.368451   1.000000   1.000000
   14        8.765142      8.765154   1.000000   1.000000
   15        8.765180      8.765193   1.000000   1.000000
   16        9.468235      9.468249   1.000000   1.000000
   17       16.908311     16.908323   0.000000   0.000000
   18       17.553595     17.553608   0.000000   0.000000
   19       21.203093     21.203103   0.000000   0.000000
   20       22.062525     22.062536   0.000000   0.000000
   21       22.062534     22.062545   0.000000   0.000000
   22       22.062573     22.062584   0.000000   0.000000
   23       22.062616     22.062628   0.000000   0.000000
   24       23.217387     23.217401   0.000000   0.000000
   25       23.217410     23.217424   0.000000   0.000000
   26       26.216363     26.216375   0.000000   0.000000
   27       27.710819     27.710834   0.000000   0.000000
   28       27.710842     27.710858   0.000000   0.000000
 
  0.5000000E+00  0.3742002E-15  0.3742002E-15  0.5859375E-02
    1       -8.969724     -8.969710   1.000000   1.000000
    2       -8.969618     -8.969605   1.000000   1.000000
    3       -0.621874     -0.621859   1.000000   1.000000
    4       -0.621838     -0.621823   1.000000   1.000000
    5       -0.621822     -0.621806   1.000000   1.000000
    6       -0.621740     -0.621724   1.000000   1.000000
    7        2.447215      2.447226   1.000000   1.000000
    8        2.447215      2.447226   1.000000   1.000000
    9        2.447250      2.447261   1.000000   1.000000
   10        2.447250      2.447261   1.000000   1.000000
   11        7.443563      7.443575   1.000000   1.000000
   12        7.443596      7.443608   1.000000   1.000000
   13        7.443688      7.443701   1.000000   1.000000
   14        7.443721      7.443734   1.000000   1.000000
   15        7.569032      7.569047   1.000000   1.000000
   16        7.569063      7.569078   1.000000   1.000000
   17       17.177099     17.177112   0.000000   0.000000
   18       17.177163     17.177176   0.000000   0.000000
   19       23.505045     23.505055   0.000000   0.000000
   20       23.505070     23.505080   0.000000   0.000000
   21       23.678707     23.678718   0.000000   0.000000
   22       23.678714     23.678725   0.000000   0.000000
   23       23.678785     23.678795   0.000000   0.000000
   24       23.678826     23.678836   0.000000   0.000000
   25       25.485267     25.485282   0.000000   0.000000
   26       25.485288     25.485303   0.000000   0.000000
   27       25.485295     25.485309   0.000000   0.000000
   28       25.485316     25.485331   0.000000   0.000000
 
  0.1250000E+00  0.1250000E+00  0.3742002E-15  0.2343750E-01
    1      -11.202256    -11.202242   1.000000   1.000000
    2       -3.760274     -3.760260   1.000000   1.000000
    3       -3.760234     -3.760220   1.000000   1.000000
    4       -1.555599     -1.555585   1.000000   1.000000
    5       -1.438086     -1.438072   1.000000   1.000000
    6        0.680392      0.680407   1.000000   1.000000
    7        0.680426      0.680441   1.000000   1.000000
    8        3.439114      3.439126   1.000000   1.000000
    9        4.704539      4.704551   1.000000   1.000000
   10        4.704553      4.704565   1.000000   1.000000
   11        4.802364      4.802376   1.000000   1.000000
   12        4.802416      4.802427   1.000000   1.000000
   13        5.216739      5.216751   1.000000   1.000000
   14       10.702451     10.702464   1.000000   1.000000
   15       11.014999     11.015012   1.000000   1.000000
   16       12.106940     12.106954   1.000000   1.000000
   17       17.631781     17.631793   0.000000   0.000000
   18       17.631802     17.631814   0.000000   0.000000
   19       17.648681     17.648693   0.000000   0.000000
   20       18.699277     18.699290   0.000000   0.000000
   21       18.829484     18.829495   0.000000   0.000000
   22       18.829534     18.829545   0.000000   0.000000
   23       19.409628     19.409642   0.000000   0.000000
   24       19.570533     19.570545   0.000000   0.000000
   25       19.737723     19.737737   0.000000   0.000000
   26       29.578656     29.578675   0.000000   0.000000
   27       30.636604     30.636644   0.000000   0.000000
   28       30.636651     30.636700   0.000000   0.000000
 
  0.2500000E+00  0.1250000E+00  0.3742002E-15  0.4687500E-01
    1      -10.720877    -10.720863   1.000000   1.000000
    2       -5.708553     -5.708539   1.000000   1.000000
    3       -3.355355     -3.355341   1.000000   1.000000
    4       -1.393185     -1.393170   1.000000   1.000000
    5       -1.043599     -1.043585   1.000000   1.000000
    6        0.800014      0.800029   1.000000   1.000000
    7        2.258974      2.258984   1.000000   1.000000
    8        2.940025      2.940039   1.000000   1.000000
    9        3.763642      3.763653   1.000000   1.000000
   10        4.168652      4.168663   1.000000   1.000000
   11        5.136218      5.136230   1.000000   1.000000
   12        5.161166      5.161178   1.000000   1.000000
   13        5.440199      5.440211   1.000000   1.000000
   14        9.278555      9.278568   1.000000   1.000000
   15        9.692685      9.692698   1.000000   1.000000
   16       11.462528     11.462541   1.000000   1.000000
   17       17.499238     17.499250   0.000000   0.000000
   18       18.532581     18.532593   0.000000   0.000000
   19       18.595181     18.595194   0.000000   0.000000
   20       19.403451     19.403463   0.000000   0.000000
   21       20.029425     20.029435   0.000000   0.000000
   22       20.468048     20.468059   0.000000   0.000000
   23       21.020330     21.020344   0.000000   0.000000
   24       21.143203     21.143217   0.000000   0.000000
   25       21.789696     21.789707   0.000000   0.000000
   26       28.879336     28.879352   0.000000   0.000000
   27       29.012275     29.012291   0.000000   0.000000
   28       29.045873     29.045889   0.000000   0.000000
 
  0.3750000E+00  0.1250000E+00  0.3742002E-15  0.4687500E-01
    1       -9.922173     -9.922159   1.000000   1.000000
    2       -7.402045     -7.402031   1.000000   1.000000
    3       -2.722516     -2.722502   1.000000   1.000000
    4       -1.429224     -1.429209   1.000000   1.000000
    5       -0.454471     -0.454457   1.000000   1.000000
    6        0.715549      0.715564   1.000000   1.000000
    7        1.584626      1.584636   1.000000   1.000000
    8        2.690981      2.690992   1.000000   1.000000
    9        3.764607      3.764618   1.000000   1.000000
   10        4.577372      4.577384   1.000000   1.000000
   11        4.877126      4.877140   1.000000   1.000000
   12        5.928301      5.928314   1.000000   1.000000
   13        6.657773      6.657786   1.000000   1.000000
   14        7.799171      7.799184   1.000000   1.000000
   15        8.265708      8.265721   1.000000   1.000000
   16       10.131691     10.131705   1.000000   1.000000
   17       17.599062     17.599075   0.000000   0.000000
   18       18.231190     18.231203   0.000000   0.000000
   19       20.388780     20.388791   0.000000   0.000000
   20       21.724710     21.724720   0.000000   0.000000
   21       21.806053     21.806065   0.000000   0.000000
   22       22.439479     22.439489   0.000000   0.000000
   23       22.984248     22.984262   0.000000   0.000000
   24       23.191272     23.191287   0.000000   0.000000
   25       24.221281     24.221293   0.000000   0.000000
   26       26.632338     26.632350   0.000000   0.000000
   27       27.003900     27.003916   0.000000   0.000000
   28       27.120945     27.120961   0.000000   0.000000
 
  0.5000000E+00  0.1250000E+00  0.3742002E-15  0.2343750E-01
    1       -8.812414     -8.812400   1.000000   1.000000
    2       -8.812308     -8.812294   1.000000   1.000000
    3       -1.975440     -1.975426   1.000000   1.000000
    4       -1.975344     -1.975329   1.000000   1.000000
    5        0.218471      0.218486   1.000000   1.000000
    6        0.218512      0.218526   1.000000   1.000000
    7        1.829421      1.829432   1.000000   1.000000
    8        1.829456      1.829467   1.000000   1.000000
    9        3.976622      3.976633   1.000000   1.000000
   10        3.976673      3.976684   1.000000   1.000000
   11        6.377436      6.377450   1.000000   1.000000
   12        6.377489      6.377503   1.000000   1.000000
   13        6.978527      6.978539   1.000000   1.000000
   14        6.978562      6.978575   1.000000   1.000000
   15        8.404005      8.404019   1.000000   1.000000
   16        8.404061      8.404074   1.000000   1.000000
   17       17.866150     17.866163   0.000000   0.000000
   18       17.866213     17.866226   0.000000   0.000000
   19       22.461311     22.461321   0.000000   0.000000
   20       22.461362     22.461373   0.000000   0.000000
   21       23.883257     23.883267   0.000000   0.000000
   22       23.883300     23.883310   0.000000   0.000000
   23       24.293273     24.293284   0.000000   0.000000
   24       24.293314     24.293326   0.000000   0.000000
   25       25.144190     25.144205   0.000000   0.000000
   26       25.144216     25.144231   0.000000   0.000000
   27       25.488963     25.488978   0.000000   0.000000
   28       25.488991     25.489006   0.000000   0.000000
 
  0.2500000E+00  0.2500000E+00  0.3742002E-15  0.2343750E-01
    1      -10.241332    -10.241318   1.000000   1.000000
    2       -5.267462     -5.267448   1.000000   1.000000
    3       -5.267425     -5.267411   1.000000   1.000000
    4       -1.699029     -1.699014   1.000000   1.000000
    5       -0.595819     -0.595805   1.000000   1.000000
    6        1.286964      1.286974   1.000000   1.000000
    7        2.564013      2.564028   1.000000   1.000000
    8        2.564014      2.564028   1.000000   1.000000
    9        4.164646      4.164658   1.000000   1.000000
   10        4.164650      4.164662   1.000000   1.000000
   11        5.298680      5.298692   1.000000   1.000000
   12        5.298777      5.298789   1.000000   1.000000
   13        6.026204      6.026217   1.000000   1.000000
   14        7.865877      7.865890   1.000000   1.000000
   15        8.476062      8.476075   1.000000   1.000000
   16       11.441023     11.441037   1.000000   1.000000
   17       18.392082     18.392093   0.000000   0.000000
   18       19.285117     19.285129   0.000000   0.000000
   19       19.285124     19.285136   0.000000   0.000000
   20       19.702012     19.702025   0.000000   0.000000
   21       21.429340     21.429353   0.000000   0.000000
   22       21.514606     21.514617   0.000000   0.000000
   23       21.514662     21.514673   0.000000   0.000000
   24       21.597844     21.597858   0.000000   0.000000
   25       24.264872     24.264884   0.000000   0.000000
   26       27.387254     27.387270   0.000000   0.000000
   27       27.387330     27.387346   0.000000   0.000000
   28       28.763055     28.917218   0.000000   0.000000
 
  0.3750000E+00  0.2500000E+00  0.3742002E-15  0.4687500E-01
    1       -9.446117     -9.446103   1.000000   1.000000
    2       -6.942355     -6.942342   1.000000   1.000000
    3       -4.551010     -4.550996   1.000000   1.000000
    4       -2.541096     -2.541081   1.000000   1.000000
    5        0.068974      0.068988   1.000000   1.000000
    6        1.283427      1.283437   1.000000   1.000000
    7        1.811685      1.811699   1.000000   1.000000
    8        3.008488      3.008499   1.000000   1.000000
    9        3.893279      3.893293   1.000000   1.000000
   10        4.887062      4.887074   1.000000   1.000000
   11        5.485046      5.485058   1.000000   1.000000
   12        6.197054      6.197066   1.000000   1.000000
   13        6.445141      6.445154   1.000000   1.000000
   14        7.090720      7.090733   1.000000   1.000000
   15        7.124411      7.124424   1.000000   1.000000
   16       10.556878     10.556891   1.000000   1.000000
   17       19.371831     19.371843   0.000000   0.000000
   18       19.465936     19.465947   0.000000   0.000000
   19       19.830910     19.830924   0.000000   0.000000
   20       21.703832     21.703845   0.000000   0.000000
   21       22.471001     22.471015   0.000000   0.000000
   22       22.691034     22.691044   0.000000   0.000000
   23       22.881407     22.881417   0.000000   0.000000
   24       23.203141     23.203155   0.000000   0.000000
   25       25.881892     25.881908   0.000000   0.000000
   26       26.150287     26.150304   0.000000   0.000000
   27       26.457818     26.457830   0.000000   0.000000
   28       27.476867     27.476889   0.000000   0.000000
 
  0.5000000E+00  0.2500000E+00  0.3742002E-15  0.2343750E-01
    1       -8.342378     -8.342364   1.000000   1.000000
    2       -8.342272     -8.342258   1.000000   1.000000
    3       -3.602515     -3.602501   1.000000   1.000000
    4       -3.602410     -3.602396   1.000000   1.000000
    5        0.907712      0.907726   1.000000   1.000000
    6        0.907750      0.907764   1.000000   1.000000
    7        1.974675      1.974686   1.000000   1.000000
    8        1.974718      1.974729   1.000000   1.000000
    9        5.123056      5.123070   1.000000   1.000000
   10        5.123106      5.123119   1.000000   1.000000
   11        5.888170      5.888182   1.000000   1.000000
   12        5.888234      5.888246   1.000000   1.000000
   13        5.892567      5.892579   1.000000   1.000000
   14        5.892606      5.892618   1.000000   1.000000
   15        8.997764      8.997777   1.000000   1.000000
   16        8.997820      8.997833   1.000000   1.000000
   17       19.590960     19.590973   0.000000   0.000000
   18       19.591022     19.591035   0.000000   0.000000
   19       21.331128     21.331140   0.000000   0.000000
   20       21.331178     21.331189   0.000000   0.000000
   21       23.459930     23.459942   0.000000   0.000000
   22       23.459993     23.460006   0.000000   0.000000
   23       24.355222     24.355235   0.000000   0.000000
   24       24.355258     24.355271   0.000000   0.000000
   25       25.507799     25.507814   0.000000   0.000000
   26       25.507833     25.507847   0.000000   0.000000
   27       25.765298     25.765312   0.000000   0.000000
   28       25.765323     25.765337   0.000000   0.000000
 
  0.3750000E+00  0.3750000E+00  0.3742002E-15  0.2343750E-01
    1       -8.657648     -8.657635   1.000000   1.000000
    2       -6.186594     -6.186580   1.000000   1.000000
    3       -6.186559     -6.186545   1.000000   1.000000
    4       -3.898067     -3.898053   1.000000   1.000000
    5        0.794315      0.794328   1.000000   1.000000
    6        1.722954      1.722966   1.000000   1.000000
    7        2.783542      2.783556   1.000000   1.000000
    8        2.783542      2.783556   1.000000   1.000000
    9        3.681424      3.681436   1.000000   1.000000
   10        3.681426      3.681438   1.000000   1.000000
   11        5.098792      5.098806   1.000000   1.000000
   12        5.832159      5.832171   1.000000   1.000000
   13        7.273820      7.273832   1.000000   1.000000
   14        7.468841      7.468854   1.000000   1.000000
   15        7.468950      7.468962   1.000000   1.000000
   16       10.275262     10.275275   1.000000   1.000000
   17       19.582505     19.582516   0.000000   0.000000
   18       21.330864     21.330878   0.000000   0.000000
   19       21.722958     21.722972   0.000000   0.000000
   20       21.722959     21.722972   0.000000   0.000000
   21       22.072062     22.072076   0.000000   0.000000
   22       22.457115     22.457126   0.000000   0.000000
   23       22.457151     22.457162   0.000000   0.000000
   24       23.783577     23.783591   0.000000   0.000000
   25       26.087937     26.087951   0.000000   0.000000
   26       26.443361     26.443376   0.000000   0.000000
   27       26.443378     26.443394   0.000000   0.000000
   28       27.992767     27.992775   0.000000   0.000000
 
  0.5000000E+00  0.3750000E+00  0.3742002E-15  0.2343750E-01
    1       -7.565743     -7.565729   1.000000   1.000000
    2       -7.565637     -7.565623   1.000000   1.000000
    3       -5.155845     -5.155831   1.000000   1.000000
    4       -5.155739     -5.155725   1.000000   1.000000
    5        1.716369      1.716383   1.000000   1.000000
    6        1.716410      1.716423   1.000000   1.000000
    7        2.575582      2.575594   1.000000   1.000000
    8        2.575626      2.575638   1.000000   1.000000
    9        3.864834      3.864847   1.000000   1.000000
   10        3.864880      3.864894   1.000000   1.000000
   11        4.645152      4.645164   1.000000   1.000000
   12        4.645194      4.645206   1.000000   1.000000
   13        7.627629      7.627642   1.000000   1.000000
   14        7.627693      7.627706   1.000000   1.000000
   15        9.189571      9.189584   1.000000   1.000000
   16        9.189628      9.189640   1.000000   1.000000
   17       20.761932     20.761944   0.000000   0.000000
   18       20.761984     20.761996   0.000000   0.000000
   19       21.742349     21.742362   0.000000   0.000000
   20       21.742408     21.742421   0.000000   0.000000
   21       22.087892     22.087904   0.000000   0.000000
   22       22.087951     22.087963   0.000000   0.000000
   23       24.188637     24.188651   0.000000   0.000000
   24       24.188679     24.188693   0.000000   0.000000
   25       25.672061     25.672076   0.000000   0.000000
   26       25.672111     25.672125   0.000000   0.000000
   27       27.590961     27.590976   0.000000   0.000000
   28       27.590981     27.590996   0.000000   0.000000
 
  0.5000000E+00  0.5000000E+00  0.3742002E-15  0.5859375E-02
    1       -6.495233     -6.495219   1.000000   1.000000
    2       -6.495093     -6.495079   1.000000   1.000000
    3       -6.495092     -6.495078   1.000000   1.000000
    4       -6.495020     -6.495006   1.000000   1.000000
    5        2.707968      2.707982   1.000000   1.000000
    6        2.707975      2.707988   1.000000   1.000000
    7        2.708016      2.708029   1.000000   1.000000
    8        2.708017      2.708031   1.000000   1.000000
    9        3.496101      3.496113   1.000000   1.000000
   10        3.496136      3.496148   1.000000   1.000000
   11        3.496146      3.496158   1.000000   1.000000
   12        3.496187      3.496199   1.000000   1.000000
   13        8.783464      8.783477   1.000000   1.000000
   14        8.783509      8.783522   1.000000   1.000000
   15        8.783554      8.783567   1.000000   1.000000
   16        8.783645      8.783658   1.000000   1.000000
   17       21.029088     21.029100   0.000000   0.000000
   18       21.029175     21.029188   0.000000   0.000000
   19       21.029181     21.029193   0.000000   0.000000
   20       21.029210     21.029222   0.000000   0.000000
   21       23.511888     23.511902   0.000000   0.000000
   22       23.511893     23.511907   0.000000   0.000000
   23       23.511946     23.511960   0.000000   0.000000
   24       23.511951     23.511965   0.000000   0.000000
   25       26.500655     26.500670   0.000000   0.000000
   26       26.500705     26.500719   0.000000   0.000000
   27       26.500747     26.500761   0.000000   0.000000
   28       26.500795     26.500809   0.000000   0.000000
 
  0.1250000E+00  0.1250000E+00  0.1250000E+00  0.1562500E-01
    1      -11.041684    -11.041670   1.000000   1.000000
    2       -3.625164     -3.625150   1.000000   1.000000
    3       -3.625102     -3.625088   1.000000   1.000000
    4       -3.625102     -3.625088   1.000000   1.000000
    5        0.700123      0.700137   1.000000   1.000000
    6        0.700168      0.700182   1.000000   1.000000
    7        0.700168      0.700182   1.000000   1.000000
    8        3.690265      3.690276   1.000000   1.000000
    9        3.690319      3.690330   1.000000   1.000000
   10        3.690319      3.690330   1.000000   1.000000
   11        5.373415      5.373427   1.000000   1.000000
   12        5.373415      5.373427   1.000000   1.000000
   13        5.373459      5.373471   1.000000   1.000000
   14        9.553988      9.554001   1.000000   1.000000
   15       11.530562     11.530576   1.000000   1.000000
   16       11.530562     11.530576   1.000000   1.000000
   17       17.663551     17.663562   0.000000   0.000000
   18       17.663551     17.663562   0.000000   0.000000
   19       17.663595     17.663606   0.000000   0.000000
   20       19.384163     19.384176   0.000000   0.000000
   21       19.384163     19.384176   0.000000   0.000000
   22       19.900123     19.900134   0.000000   0.000000
   23       19.900123     19.900134   0.000000   0.000000
   24       19.900181     19.900192   0.000000   0.000000
   25       20.057499     20.057513   0.000000   0.000000
   26       29.643408     29.643426   0.000000   0.000000
   27       30.344617     30.344632   0.000000   0.000000
   28       30.344626     30.344641   0.000000   0.000000
 
  0.2500000E+00  0.1250000E+00  0.1250000E+00  0.4687500E-01
    1      -10.560858    -10.560844   1.000000   1.000000
    2       -5.560918     -5.560904   1.000000   1.000000
    3       -3.234851     -3.234836   1.000000   1.000000
    4       -3.234803     -3.234789   1.000000   1.000000
    5        0.573628      0.573642   1.000000   1.000000
    6        0.573639      0.573653   1.000000   1.000000
    7        2.640992      2.641006   1.000000   1.000000
    8        2.778601      2.778612   1.000000   1.000000
    9        2.778656      2.778667   1.000000   1.000000
   10        4.612018      4.612030   1.000000   1.000000
   11        5.308698      5.308710   1.000000   1.000000
   12        5.308716      5.308727   1.000000   1.000000
   13        5.840866      5.840878   1.000000   1.000000
   14        8.045470      8.045483   1.000000   1.000000
   15       10.276910     10.276923   1.000000   1.000000
   16       11.232762     11.232775   1.000000   1.000000
   17       17.758532     17.758544   0.000000   0.000000
   18       18.614951     18.614962   0.000000   0.000000
   19       18.614981     18.614993   0.000000   0.000000
   20       19.121219     19.121233   0.000000   0.000000
   21       20.848816     20.848826   0.000000   0.000000
   22       20.968541     20.968555   0.000000   0.000000
   23       21.246856     21.246870   0.000000   0.000000
   24       22.016966     22.016978   0.000000   0.000000
   25       22.016997     22.017009   0.000000   0.000000
   26       28.872537     28.869831   0.000000   0.000000
   27       28.876488     28.876492   0.000000   0.000000
   28       29.117942     29.114879   0.000000   0.000000
 
  0.3750000E+00  0.1250000E+00  0.1250000E+00  0.4687500E-01
    1       -9.763234     -9.763220   1.000000   1.000000
    2       -7.248326     -7.248312   1.000000   1.000000
    3       -2.665495     -2.665480   1.000000   1.000000
    4       -2.665432     -2.665418   1.000000   1.000000
    5       -0.037878     -0.037865   1.000000   1.000000
    6       -0.037859     -0.037846   1.000000   1.000000
    7        2.592541      2.592553   1.000000   1.000000
    8        2.592625      2.592637   1.000000   1.000000
    9        4.001879      4.001892   1.000000   1.000000
   10        4.834137      4.834149   1.000000   1.000000
   11        4.834140      4.834152   1.000000   1.000000
   12        6.376141      6.376154   1.000000   1.000000
   13        6.562814      6.562827   1.000000   1.000000
   14        6.606317      6.606330   1.000000   1.000000
   15        8.900021      8.900034   1.000000   1.000000
   16       10.078820     10.078834   1.000000   1.000000
   17       17.982894     17.982906   0.000000   0.000000
   18       18.727489     18.727502   0.000000   0.000000