       N       E                     dE             d eps       ncg     rms          rms(c)
DAV:   1    -0.478708090401E+02   -0.47871E+02   -0.15350E+04  3984   0.927E+02
DAV:   2    -0.179379520341E+03   -0.13151E+03   -0.12520E+03  5148   0.227E+02
DAV:   3    -0.184665258523E+03   -0.52857E+01   -0.52415E+01  5264   0.403E+01
DAV:   4    -0.184746054214E+03   -0.80796E-01   -0.80523E-01  4996   0.528E+00
DAV:   5    -0.184748122546E+03   -0.20683E-02   -0.20671E-02  5260   0.792E-01    0.483E+01
DAV:   6    -0.102463940070E+03    0.82284E+02   -0.46218E+01  4292   0.334E+01    0.257E+01
DAV:   7    -0.722775493655E+02    0.30186E+02   -0.59591E+01  4656   0.382E+01    0.347E+00
DAV:   8    -0.725305268855E+02   -0.25298E+00   -0.18225E+00  4808   0.651E+00    0.130E+00
DAV:   9    -0.725704202278E+02   -0.39893E-01   -0.13450E-01  4596   0.257E+00    0.242E-01
DAV:  10    -0.725814566146E+02   -0.11036E-01   -0.15200E-02  4592   0.894E-01    0.847E-02
DAV:  11    -0.725820442168E+02   -0.58760E-03   -0.36615E-04  4800   0.166E-01    0.518E-02
DAV:  12    -0.725823640831E+02   -0.31987E-03   -0.17095E-04  4416   0.108E-01    0.104E-02
DAV:  13    -0.725823727198E+02   -0.86368E-05   -0.10471E-05  4736   0.216E-02    0.190E-03
DAV:  14    -0.725823733837E+02   -0.66391E-06   -0.38505E-07  3104   0.483E-03
   1 F= -.45548329E+02 E0= -.45548329E+02  d E =-.455483E+02  mag=     0.0000
       N       E                     dE             d eps       ncg     rms          rms(c)
DAV:   1    -0.725093642428E+02    0.73008E-01   -0.13269E-01  4300   0.232E+00    0.283E-01
DAV:   2    -0.725079226170E+02    0.14416E-02   -0.25251E-03  4856   0.256E-01    0.155E-01
DAV:   3    -0.725072733442E+02    0.64927E-03   -0.98588E-04  4260   0.158E-01    0.960E-03
DAV:   4    -0.725072721399E+02    0.12044E-05   -0.12402E-05  4708   0.199E-02    0.401E-03
DAV:   5    -0.725072725238E+02   -0.38388E-06   -0.48096E-07  2692   0.545E-03
   2 F= -.45786371E+02 E0= -.45786371E+02  d E =-.238041E+00  mag=     0.0000
       N       E                     dE             d eps       ncg     rms          rms(c)
DAV:   1    -0.721779528887E+02    0.32932E+00   -0.12183E+00  4216   0.711E+00    0.859E-01
DAV:   2    -0.721648515018E+02    0.13101E-01   -0.23828E-02  4668   0.791E-01    0.469E-01
DAV:   3    -0.721588953314E+02    0.59562E-02   -0.87775E-03  4224   0.478E-01    0.301E-02
DAV:   4    -0.721588735168E+02    0.21815E-04   -0.11158E-04  4692   0.602E-02    0.123E-02
DAV:   5    -0.721588698663E+02    0.36505E-05   -0.47153E-06  4496   0.155E-02    0.110E-03
DAV:   6    -0.721588697292E+02    0.13705E-06   -0.10748E-07  2444   0.190E-03
   3 F= -.46362868E+02 E0= -.46362868E+02  d E =-.814538E+00  mag=     0.0000
       N       E                     dE             d eps       ncg     rms          rms(c)
DAV:   1    -0.709350775316E+02    0.12238E+01   -0.50685E+00  4180   0.149E+01    0.176E+00
DAV:   2    -0.708821899532E+02    0.52888E-01   -0.10208E-01  4644   0.167E+00    0.956E-01
DAV:   3    -0.708578979661E+02    0.24292E-01   -0.34173E-02  4156   0.968E-01    0.651E-02
DAV:   4    -0.708577915588E+02    0.10641E-03   -0.44525E-04  4684   0.123E-01    0.260E-02
DAV:   5    -0.708577691166E+02    0.22442E-04   -0.21435E-05  4292   0.330E-02    0.260E-03
DAV:   6    -0.708577685008E+02    0.61579E-06   -0.54961E-07  2640   0.433E-03
   4 F= -.46847042E+02 E0= -.46847042E+02  d E =-.129871E+01  mag=    -0.0000
