PROCAR lm decomposed
# of k-points:   35         # of bands:   28         # of ions:    8

 k-point     1 :    0.00000000 0.00000000 0.00000000     weight = 0.00195313

band     1 # energy  -11.52407576 # occ.  1.00000000
 
ion      s     py     pz     px    dxy    dyz    dz2    dxz  x2-y2    tot
    1  0.076  0.000  0.000  0.000  0.000  0.000  0.000  0.000  0.000  0.076
    2  0.076  0.000  0.000  0.000  0.000  0.000  0.000  0.000  0.000  0.076
    3  0.076  0.000  0.000  0.000  0.000  0.000  0.000  0.000  0.000  0.076
    4  0.076  0.000  0.000  0.000  0.000  0.000  0.000  0.000  0.000  0.076
    5  0.076  0.000  0.000  0.000  0.000  0.000  0.000  0.000  0.000  0.076
    6  0.076  0.000  0.000  0.000  0.000  0.000  0.000  0.000  0.000  0.076
    7  0.076  0.000  0.000  0.000  0.000  0.000  0.000  0.000  0.000  0.076
    8  0.076  0.000  0.000  0.000  0.000  0.000  0.000  0.000  0.000  0.076
tot    0.608  0.000  0.000  0.000  0.000  0.000  0.000  0.000  0.000  0.608
 
band     2 # energy   -1.72018508 # occ.  1.00000000
 
ion      s     py     pz     px    dxy    dyz    dz2    dxz  x2-y2    tot
    1  0.302  0.001  0.001  0.001  0.000  0.000  0.000  0.000  0.000  0.305
    2  0.002  0.021  0.022  0.021  0.000  0.000  0.000  0.000  0.000  0.066
    3  0.015  0.021  0.022  0.021  0.000  0.000  0.000  0.000  0.000  0.079
    4  0.002  0.021  0.022  0.021  0.000  0.000  0.000  0.000  0.000  0.066
    5  0.002  0.021  0.022  0.021  0.000  0.000  0.000  0.000  0.000  0.066
    6  0.034  0.001  0.001  0.001  0.000  0.000  0.000  0.000  0.000  0.037
    7  0.033  0.001  0.001  0.001  0.000  0.000  0.000  0.000  0.000  0.036
    8  0.034  0.001  0.001  0.001  0.000  0.000  0.000  0.000  0.000  0.037
tot    0.423  0.089  0.091  0.089  0.000  0.000  0.000  0.000  0.000  0.692
 
band     3 # energy   -1.72012368 # occ.  1.00000000
 
ion      s     py     pz     px    dxy    dyz    dz2    dxz  x2-y2    tot
    1  0.000  0.032  0.000  0.032  0.000  0.000  0.000  0.000  0.000  0.064
    2  0.202  0.002  0.000  0.002  0.000  0.000  0.000  0.000  0.000  0.205
    3  0.000  0.002  0.000  0.002  0.000  0.000  0.000  0.000  0.000  0.003
    4  0.000  0.002  0.000  0.002  0.000  0.000  0.000  0.000  0.000  0.003
    5  0.202  0.002  0.000  0.002  0.000  0.000  0.000  0.000  0.000  0.205
    6  0.010  0.032  0.000  0.032  0.000  0.000  0.000  0.000  0.000  0.074
    7  0.000  0.032  0.000  0.032  0.000  0.000  0.000  0.000  0.000  0.064
    8  0.010  0.032  0.000  0.032  0.000  0.000  0.000  0.000  0.000  0.074
tot    0.423  0.135  0.000  0.135  0.000  0.000  0.000  0.000  0.000  0.692
 
band     4 # energy   -1.72012308 # occ.  1.00000000
 
ion      s     py     pz     px    dxy    dyz    dz2    dxz  x2-y2    tot
    1  0.000  0.013  0.038  0.013  0.000  0.000  0.000  0.000  0.000  0.064
    2  0.059  0.000  0.002  0.000  0.000  0.000  0.000  0.000  0.000  0.062
    3  0.002  0.000  0.002  0.000  0.000  0.000  0.000  0.000  0.000  0.005
    4  0.282  0.000  0.002  0.000  0.000  0.000  0.000  0.000  0.000  0.286
    5  0.059  0.000  0.002  0.000  0.000  0.000  0.000  0.000  0.000  0.062
    6  0.004  0.013  0.038  0.013  0.000  0.000  0.000  0.000  0.000  0.068
    7  0.013  0.013  0.038  0.013  0.000  0.000  0.000  0.000  0.000  0.077
    8  0.004  0.013  0.038  0.013  0.000  0.000  0.000  0.000  0.000  0.068
tot    0.423  0.054  0.160  0.054  0.000  0.000  0.000  0.000  0.000  0.692
 
band     5 # energy   -1.72011685 # occ.  1.00000000
 
ion      s     py     pz     px    dxy    dyz    dz2    dxz  x2-y2    tot
    1  0.015  0.019  0.026  0.019  0.000  0.000  0.000  0.000  0.000  0.079
    2  0.041  0.001  0.001  0.001  0.000  0.000  0.000  0.000  0.000  0.045
    3  0.300  0.001  0.001  0.001  0.000  0.000  0.000  0.000  0.000  0.304
    4  0.020  0.001  0.001  0.001  0.000  0.000  0.000  0.000  0.000  0.023
    5  0.041  0.001  0.001  0.001  0.000  0.000  0.000  0.000  0.000  0.045
    6  0.001  0.019  0.026  0.019  0.000  0.000  0.000  0.000  0.000  0.065
    7  0.003  0.019  0.026  0.019  0.000  0.000  0.000  0.000  0.000  0.067
    8  0.001  0.019  0.026  0.019  0.000  0.000  0.000  0.000  0.000  0.065
tot    0.423  0.080  0.109  0.080  0.000  0.000  0.000  0.000  0.000  0.692
 
band     6 # energy   -1.72005535 # occ.  1.00000000
 
ion      s     py     pz     px    dxy    dyz    dz2    dxz  x2-y2    tot
    1  0.000  0.001  0.002  0.001  0.000  0.000  0.000  0.000  0.000  0.003
    2  0.003  0.011  0.042  0.011  0.000  0.000  0.000  0.000  0.000  0.067
    3  0.000  0.011  0.042  0.011  0.000  0.000  0.000  0.000  0.000  0.064
    4  0.014  0.011  0.042  0.011  0.000  0.000  0.000  0.000  0.000  0.078
    5  0.003  0.011  0.042  0.011  0.000  0.000  0.000  0.000  0.000  0.067
    6  0.067  0.001  0.002  0.001  0.000  0.000  0.000  0.000  0.000  0.070
    7  0.269  0.001  0.002  0.001  0.000  0.000  0.000  0.000  0.000  0.272
    8  0.067  0.001  0.002  0.001  0.000  0.000  0.000  0.000  0.000  0.070
tot    0.423  0.045  0.178  0.045  0.000  0.000  0.000  0.000  0.000  0.692
 
band     7 # energy   -1.72005470 # occ.  1.00000000
 
ion      s     py     pz     px    dxy    dyz    dz2    dxz  x2-y2    tot
    1  0.000  0.002  0.000  0.002  0.000  0.000  0.000  0.000  0.000  0.003
    2  0.010  0.032  0.000  0.032  0.000  0.000  0.000  0.000  0.000  0.074
    3  0.000  0.032  0.000  0.032  0.000  0.000  0.000  0.000  0.000  0.064
    4  0.000  0.032  0.000  0.032  0.000  0.000  0.000  0.000  0.000  0.064
    5  0.010  0.032  0.000  0.032  0.000  0.000  0.000  0.000  0.000  0.074
    6  0.202  0.002  0.000  0.002  0.000  0.000  0.000  0.000  0.000  0.205
    7  0.000  0.002  0.000  0.002  0.000  0.000  0.000  0.000  0.000  0.003
    8  0.202  0.002  0.000  0.002  0.000  0.000  0.000  0.000  0.000  0.205
tot    0.423  0.135  0.000  0.135  0.000  0.000  0.000  0.000  0.000  0.692
 
band     8 # energy    4.93801738 # occ.  1.00000000
 
ion      s     py     pz     px    dxy    dyz    dz2    dxz  x2-y2    tot
    1  0.000  0.088  0.000  0.088  0.000  0.000  0.000  0.000  0.000  0.176
    2  0.000  0.035  0.074  0.018  0.000  0.000  0.000  0.000  0.000  0.127
    3  0.000  0.035  0.000  0.035  0.000  0.000  0.000  0.000  0.000  0.070
    4  0.000  0.018  0.000  0.018  0.000  0.000  0.000  0.000  0.000  0.036
    5  0.000  0.018  0.074  0.035  0.000  0.000  0.000  0.000  0.000  0.127
    6  0.000  0.001  0.003  0.088  0.000  0.000  0.000  0.000  0.000  0.092
    7  0.000  0.001  0.000  0.001  0.000  0.000  0.000  0.000  0.000  0.001
    8  0.000  0.088  0.003  0.001  0.000  0.000  0.000  0.000  0.000  0.092
tot    0.000  0.284  0.154  0.284  0.000  0.000  0.000  0.000  0.000  0.721
 
band     9 # energy    4.93801797 # occ.  1.00000000
 
ion      s     py     pz     px    dxy    dyz    dz2    dxz  x2-y2    tot
    1  0.000  0.032  0.113  0.032  0.000  0.000  0.000  0.000  0.000  0.176
    2  0.000  0.010  0.000  0.054  0.000  0.000  0.000  0.000  0.000  0.065
    3  0.000  0.010  0.051  0.010  0.000  0.000  0.000  0.000  0.000  0.072
    4  0.000  0.054  0.051  0.054  0.000  0.000  0.000  0.000  0.000  0.159
    5  0.000  0.054  0.000  0.010  0.000  0.000  0.000  0.000  0.000  0.065
    6  0.000  0.002  0.000  0.032  0.000  0.000  0.000  0.000  0.000  0.034
    7  0.000  0.002  0.113  0.002  0.000  0.000  0.000  0.000  0.000  0.117
    8  0.000  0.032  0.000  0.002  0.000  0.000  0.000  0.000  0.000  0.034
tot    0.000  0.197  0.326  0.197  0.000  0.000  0.000  0.000  0.000  0.721
 
band    10 # energy    4.93803908 # occ.  1.00000000
 
ion      s     py     pz     px    dxy    dyz    dz2    dxz  x2-y2    tot
    1  0.000  0.058  0.065  0.058  0.000  0.000  0.000  0.000  0.000  0.180
    2  0.000  0.061  0.000  0.000  0.000  0.000  0.000  0.000  0.000  0.061
    3  0.000  0.061  0.058  0.061  0.000  0.000  0.000  0.000  0.000  0.180
    4  0.000  0.000  0.058  0.000  0.000  0.000  0.000  0.000  0.000  0.058
    5  0.000  0.000  0.000  0.061  0.000  0.000  0.000  0.000  0.000  0.061
    6  0.000  0.000  0.000  0.058  0.000  0.000  0.000  0.000  0.000  0.058
    7  0.000  0.000  0.065  0.000  0.000  0.000  0.000  0.000  0.000  0.065
    8  0.000  0.058  0.000  0.000  0.000  0.000  0.000  0.000  0.000  0.058
tot    0.000  0.238  0.245  0.238  0.000  0.000  0.000  0.000  0.000  0.721
 
band    11 # energy    4.93807173 # occ.  1.00000000
 
ion      s     py     pz     px    dxy    dyz    dz2    dxz  x2-y2    tot
    1  0.000  0.000  0.000  0.000  0.000  0.000  0.000  0.000  0.000  0.000
    2  0.000  0.000  0.062  0.059  0.000  0.000  0.000  0.000  0.000  0.121
    3  0.000  0.000  0.000  0.000  0.000  0.000  0.000  0.000  0.000  0.000
    4  0.000  0.059  0.000  0.059  0.000  0.000  0.000  0.000  0.000  0.118
    5  0.000  0.059  0.062  0.000  0.000  0.000  0.000  0.000  0.000  0.121
    6  0.000  0.062  0.056  0.000  0.000  0.000  0.000  0.000  0.000  0.118
    7  0.000  0.062  0.000  0.062  0.000  0.000  0.000  0.000  0.000  0.125
    8  0.000  0.000  0.056  0.062  0.000  0.000  0.000  0.000  0.000  0.118
tot    0.000  0.243  0.236  0.243  0.000  0.000  0.000  0.000  0.000  0.721
 
band    12 # energy    4.93809282 # occ.  1.00000000
 
ion      s     py     pz     px    dxy    dyz    dz2    dxz  x2-y2    tot
    1  0.000  0.001  0.003  0.001  0.000  0.000  0.000  0.000  0.000  0.004
    2  0.000  0.018  0.000  0.036  0.000  0.000  0.000  0.000  0.000  0.054
    3  0.000  0.018  0.072  0.018  0.000  0.000  0.000  0.000  0.000  0.109
    4  0.000  0.036  0.072  0.036  0.000  0.000  0.000  0.000  0.000  0.143
    5  0.000  0.036  0.000  0.018  0.000  0.000  0.000  0.000  0.000  0.054
    6  0.000  0.088  0.000  0.001  0.000  0.000  0.000  0.000  0.000  0.089
    7  0.000  0.088  0.003  0.088  0.000  0.000  0.000  0.000  0.000  0.179
    8  0.000  0.001  0.000  0.088  0.000  0.000  0.000  0.000  0.000  0.089
tot    0.000  0.286  0.150  0.286  0.000  0.000  0.000  0.000  0.000  0.721
 
band    13 # energy    4.93809344 # occ.  1.00000000
 
ion      s     py     pz     px    dxy    dyz    dz2    dxz  x2-y2    tot
    1  0.000  0.002  0.000  0.002  0.000  0.000  0.000  0.000  0.000  0.004
    2  0.000  0.055  0.044  0.013  0.000  0.000  0.000  0.000  0.000  0.112
    3  0.000  0.055  0.000  0.055  0.000  0.000  0.000  0.000  0.000  0.110
    4  0.000  0.013  0.000  0.013  0.000  0.000  0.000  0.000  0.000  0.026
    5  0.000  0.013  0.044  0.055  0.000  0.000  0.000  0.000  0.000  0.112
    6  0.000  0.027  0.122  0.002  0.000  0.000  0.000  0.000  0.000  0.151
    7  0.000  0.027  0.000  0.027  0.000  0.000  0.000  0.000  0.000  0.054
    8  0.000  0.002  0.122  0.027  0.000  0.000  0.000  0.000  0.000  0.151
tot    0.000  0.195  0.332  0.195  0.000  0.000  0.000  0.000  0.000  0.721
 
band    14 # energy   12.31045756 # occ.  1.00000000
 
ion      s     py     pz     px    dxy    dyz    dz2    dxz  x2-y2    tot
    1  0.000  0.017  0.067  0.017  0.000  0.000  0.000  0.000  0.000  0.101
    2  0.000  0.017  0.068  0.017  0.000  0.000  0.000  0.000  0.000  0.101
    3  0.000  0.017  0.068  0.017  0.000  0.000  0.000  0.000  0.000  0.101
    4  0.000  0.017  0.068  0.017  0.000  0.000  0.000  0.000  0.000  0.101
    5  0.000  0.017  0.068  0.017  0.000  0.000  0.000  0.000  0.000  0.101
    6  0.000  0.017  0.068  0.017  0.000  0.000  0.000  0.000  0.000  0.101
    7  0.000  0.017  0.068  0.017  0.000  0.000  0.000  0.000  0.000  0.101
    8  0.000  0.017  0.068  0.017  0.000  0.000  0.000  0.000  0.000  0.101
tot    0.000  0.133  0.540  0.138  0.000  0.000  0.000  0.000  0.000  0.810
 
band    15 # energy   12.31045756 # occ.  1.00000000
 
ion      s     py     pz     px    dxy    dyz    dz2    dxz  x2-y2    tot
    1  0.000  0.051  0.000  0.050  0.000  0.000  0.000  0.000  0.000  0.101
    2  0.000  0.051  0.000  0.050  0.000  0.000  0.000  0.000  0.000  0.101
    3  0.000  0.051  0.000  0.050  0.000  0.000  0.000  0.000  0.000  0.101
    4  0.000  0.051  0.000  0.050  0.000  0.000  0.000  0.000  0.000  0.101
    5  0.000  0.051  0.000  0.050  0.000  0.000  0.000  0.000  0.000  0.101
    6  0.000  0.051  0.000  0.050  0.000  0.000  0.000  0.000  0.000  0.101
    7  0.000  0.051  0.000  0.050  0.000  0.000  0.000  0.000  0.000  0.101
    8  0.000  0.051  0.000  0.050  0.000  0.000  0.000  0.000  0.000  0.101
tot    0.000  0.407  0.000  0.403  0.000  0.000  0.000  0.000  0.000  0.810
 
band    16 # energy   12.31057389 # occ.  1.00000000
 
ion      s     py     pz     px    dxy    dyz    dz2    dxz  x2-y2    tot
    1  0.000  0.034  0.034  0.034  0.000  0.000  0.000  0.000  0.000  0.101
    2  0.000  0.034  0.034  0.034  0.000  0.000  0.000  0.000  0.000  0.101
    3  0.000  0.034  0.034  0.034  0.000  0.000  0.000  0.000  0.000  0.101
    4  0.000  0.034  0.034  0.034  0.000  0.000  0.000  0.000  0.000  0.101
    5  0.000  0.034  0.034  0.034  0.000  0.000  0.000  0.000  0.000  0.101
    6  0.000  0.034  0.034  0.034  0.000  0.000  0.000  0.000  0.000  0.101
    7  0.000  0.034  0.034  0.034  0.000  0.000  0.000  0.000  0.000  0.101
    8  0.000  0.034  0.034  0.034  0.000  0.000  0.000  0.000  0.000  0.101
tot    0.000  0.270  0.270  0.270  0.000  0.000  0.000  0.000  0.000  0.810
 
band    17 # energy   17.39958135 # occ.  0.00000000
 
ion      s     py     pz     px    dxy    dyz    dz2    dxz  x2-y2    tot
    1  0.000  0.003  0.000  0.003  0.000  0.000  0.000  0.000  0.000  0.007
    2  0.049  0.006  0.000  0.006  0.000  0.000  0.000  0.000  0.000  0.060
    3  0.000  0.006  0.000  0.006  0.000  0.000  0.000  0.000  0.000  0.011
    4  0.000  0.006  0.000  0.006  0.000  0.000  0.000  0.000  0.000  0.011
    5  0.049  0.006  0.000  0.006  0.000  0.000  0.000  0.000  0.000  0.060
    6  0.080  0.003  0.000  0.003  0.000  0.000  0.000  0.000  0.000  0.086
    7  0.000  0.003  0.000  0.003  0.000  0.000  0.000  0.000  0.000  0.007
    8  0.080  0.003  0.000  0.003  0.000  0.000  0.000  0.000  0.000  0.086
tot    0.256  0.036  0.000  0.036  0.000  0.000  0.000  0.000  0.000  0.328
 
band    18 # energy   17.39958151 # occ.  0.00000000
 
ion      s     py     pz     px    dxy    dyz    dz2    dxz  x2-y2    tot
    1  0.000  0.001  0.005  0.001  0.000  0.000  0.000  0.000  0.000  0.007
    2  0.018  0.002  0.007  0.002  0.000  0.000  0.000  0.000  0.000  0.029
    3  0.000  0.002  0.007  0.002  0.000  0.000  0.000  0.000  0.000  0.011
    4  0.068  0.002  0.007  0.002  0.000  0.000  0.000  0.000  0.000  0.079
    5  0.018  0.002  0.007  0.002  0.000  0.000  0.000  0.000  0.000  0.029
    6  0.025  0.001  0.005  0.001  0.000  0.000  0.000  0.000  0.000  0.033
    7  0.101  0.001  0.005  0.001  0.000  0.000  0.000  0.000  0.000  0.108
    8  0.025  0.001  0.005  0.001  0.000  0.000  0.000  0.000  0.000  0.033
tot    0.256  0.012  0.049  0.012  0.000  0.000  0.000  0.000  0.000  0.328
 
band    19 # energy   17.39959575 # occ.  0.00000000
 
ion      s     py     pz     px    dxy    dyz    dz2    dxz  x2-y2    tot
    1  0.003  0.006  0.006  0.006  0.000  0.000  0.000  0.000  0.000  0.020
    2  0.022  0.000  0.000  0.000  0.000  0.000  0.000  0.000  0.000  0.022
    3  0.189  0.000  0.000  0.000  0.000  0.000  0.000  0.000  0.000  0.189
    4  0.019  0.000  0.000  0.000  0.000  0.000  0.000  0.000  0.000  0.019
    5  0.022  0.000  0.000  0.000  0.000  0.000  0.000  0.000  0.000  0.022
    6  0.000  0.006  0.006  0.006  0.000  0.000  0.000  0.000  0.000  0.018
    7  0.001  0.006  0.006  0.006  0.000  0.000  0.000  0.000  0.000  0.019
    8  0.000  0.006  0.006  0.006  0.000  0.000  0.000  0.000  0.000  0.018
tot    0.256  0.023  0.025  0.023  0.000  0.000  0.000  0.000  0.000  0.328
 
band    20 # energy   17.39960749 # occ.  0.00000000
 
ion      s     py     pz     px    dxy    dyz    dz2    dxz  x2-y2    tot
    1  0.000  0.002  0.007  0.002  0.000  0.000  0.000  0.000  0.000  0.011
    2  0.023  0.001  0.005  0.001  0.000  0.000  0.000  0.000  0.000  0.031
    3  0.000  0.001  0.005  0.001  0.000  0.000  0.000  0.000  0.000  0.008
    4  0.105  0.001  0.005  0.001  0.000  0.000  0.000  0.000  0.000  0.112
    5  0.023  0.001  0.005  0.001  0.000  0.000  0.000  0.000  0.000  0.031
    6  0.017  0.002  0.007  0.002  0.000  0.000  0.000  0.000  0.000  0.028
    7  0.069  0.002  0.007  0.002  0.000  0.000  0.000  0.000  0.000  0.080
    8  0.017  0.002  0.007  0.002  0.000  0.000  0.000  0.000  0.000  0.028
tot    0.256  0.013  0.046  0.013  0.000  0.000  0.000  0.000  0.000  0.328
 
band    21 # energy   17.39960764 # occ.  0.00000000
 
ion      s     py     pz     px    dxy    dyz    dz2    dxz  x2-y2    tot
    1  0.000  0.006  0.000  0.006  0.000  0.000  0.000  0.000  0.000  0.011
    2  0.079  0.003  0.000  0.003  0.000  0.000  0.000  0.000  0.000  0.086
    3  0.000  0.003  0.000  0.003  0.000  0.000  0.000  0.000  0.000  0.007
    4  0.000  0.003  0.000  0.003  0.000  0.000  0.000  0.000  0.000  0.007
    5  0.079  0.003  0.000  0.003  0.000  0.000  0.000  0.000  0.000  0.086
    6  0.049  0.006  0.000  0.006  0.000  0.000  0.000  0.000  0.000  0.060
    7  0.000  0.006  0.000  0.006  0.000  0.000  0.000  0.000  0.000  0.011
    8  0.049  0.006  0.000  0.006  0.000  0.000  0.000  0.000  0.000  0.060
tot    0.256  0.036  0.000  0.036  0.000  0.000  0.000  0.000  0.000  0.328
 
band    22 # energy   17.39970402 # occ.  0.00000000
 
ion      s     py     pz     px    dxy    dyz    dz2    dxz  x2-y2    tot
    1  0.189  0.000  0.000  0.000  0.000  0.000  0.000  0.000  0.000  0.190
    2  0.000  0.006  0.006  0.006  0.000  0.000  0.000  0.000  0.000  0.018
    3  0.003  0.006  0.006  0.006  0.000  0.000  0.000  0.000  0.000  0.020
    4  0.000  0.006  0.006  0.006  0.000  0.000  0.000  0.000  0.000  0.018
    5  0.000  0.006  0.006  0.006  0.000  0.000  0.000  0.000  0.000  0.018
    6  0.021  0.000  0.000  0.000  0.000  0.000  0.000  0.000  0.000  0.022
    7  0.020  0.000  0.000  0.000  0.000  0.000  0.000  0.000  0.000  0.021
    8  0.021  0.000  0.000  0.000  0.000  0.000  0.000  0.000  0.000  0.022
tot    0.256  0.024  0.024  0.024  0.000  0.000  0.000  0.000  0.000  0.328
 
band    23 # energy   18.35789991 # occ.  0.00000000
 
ion      s     py     pz     px    dxy    dyz    dz2    dxz  x2-y2    tot
    1  0.000  0.025  0.025  0.025  0.000  0.000  0.000  0.000  0.000  0.076
    2  0.000  0.025  0.025  0.025  0.000  0.000  0.000  0.000  0.000  0.076
    3  0.000  0.025  0.025  0.025  0.000  0.000  0.000  0.000  0.000  0.076
    4  0.000  0.025  0.025  0.025  0.000  0.000  0.000  0.000  0.000  0.076
    5  0.000  0.025  0.025  0.025  0.000  0.000  0.000  0.000  0.000  0.076
    6  0.000  0.025  0.025  0.025  0.000  0.000  0.000  0.000  0.000  0.076
    7  0.000  0.025  0.025  0.025  0.000  0.000  0.000  0.000  0.000  0.076
    8  0.000  0.025  0.025  0.025  0.000  0.000  0.000  0.000  0.000  0.076
tot    0.000  0.203  0.203  0.203  0.000  0.000  0.000  0.000  0.000  0.609
 
band    24 # energy   18.35798585 # occ.  0.00000000
 
ion      s     py     pz     px    dxy    dyz    dz2    dxz  x2-y2    tot
    1  0.000  0.038  0.000  0.038  0.000  0.000  0.000  0.000  0.000  0.076
    2  0.000  0.038  0.000  0.038  0.000  0.000  0.000  0.000  0.000  0.076
    3  0.000  0.038  0.000  0.038  0.000  0.000  0.000  0.000  0.000  0.076
    4  0.000  0.038  0.000  0.038  0.000  0.000  0.000  0.000  0.000  0.076
    5  0.000  0.038  0.000  0.038  0.000  0.000  0.000  0.000  0.000  0.076
    6  0.000  0.038  0.000  0.038  0.000  0.000  0.000  0.000  0.000  0.076
    7  0.000  0.038  0.000  0.038  0.000  0.000  0.000  0.000  0.000  0.076
    8  0.000  0.038  0.000  0.038  0.000  0.000  0.000  0.000  0.000  0.076
tot    0.000  0.305  0.000  0.305  0.000  0.000  0.000  0.000  0.000  0.609
 
band    25 # energy   18.35798585 # occ.  0.00000000
 
ion      s     py     pz     px    dxy    dyz    dz2    dxz  x2-y2    tot
    1  0.000  0.013  0.051  0.013  0.000  0.000  0.000  0.000  0.000  0.076
    2  0.000  0.013  0.051  0.013  0.000  0.000  0.000  0.000  0.000  0.076
    3  0.000  0.013  0.051  0.013  0.000  0.000  0.000  0.000  0.000  0.076
    4  0.000  0.013  0.051  0.013  0.000  0.000  0.000  0.000  0.000  0.076
    5  0.000  0.013  0.051  0.013  0.000  0.000  0.000  0.000  0.000  0.076
    6  0.000  0.013  0.051  0.013  0.000  0.000  0.000  0.000  0.000  0.076
    7  0.000  0.013  0.051  0.013  0.000  0.000  0.000  0.000  0.000  0.076
    8  0.000  0.013  0.051  0.013  0.000  0.000  0.000  0.000  0.000  0.076
tot    0.000  0.102  0.406  0.102  0.000  0.000  0.000  0.000  0.000  0.609
 
band    26 # energy   29.61192159 # occ.  0.00000000
 
ion      s     py     pz     px    dxy    dyz    dz2    dxz  x2-y2    tot
    1  0.094  0.000  0.000  0.000  0.000  0.000  0.000  0.000  0.000  0.094
    2  0.094  0.000  0.000  0.000  0.000  0.000  0.000  0.000  0.000  0.094
    3  0.094  0.000  0.000  0.000  0.000  0.000  0.000  0.000  0.000  0.094
    4  0.094  0.000  0.000  0.000  0.000  0.000  0.000  0.000  0.000  0.094
    5  0.094  0.000  0.000  0.000  0.000  0.000  0.000  0.000  0.000  0.094
    6  0.094  0.000  0.000  0.000  0.000  0.000  0.000  0.000  0.000  0.094
    7  0.094  0.000  0.000  0.000  0.000  0.000  0.000  0.000  0.000  0.094
    8  0.094  0.000  0.000  0.000  0.000  0.000  0.000  0.000  0.000  0.094
tot    0.750  0.000  0.000  0.000  0.000  0.000  0.000  0.000  0.000  0.750
 
band    27 # energy   31.83606058 # occ.  0.00000000
 
ion      s     py     pz     px    dxy    dyz    dz2    dxz  x2-y2    tot
    1  0.000  0.001  0.001  0.044  0.000  0.000  0.000  0.000  0.000  0.045
    2  0.000  0.007  0.118  0.023  0.000  0.000  0.000  0.000  0.000  0.148
    3  0.000  0.007  0.051  0.002  0.000  0.000  0.000  0.000  0.000  0.060
    4  0.000  0.011  0.051  0.023  0.000  0.000  0.000  0.000  0.000  0.085
    5  0.000  0.011  0.118  0.002  0.000  0.000  0.000  0.000  0.000  0.131
    6  0.000  0.025  0.014  0.044  0.000  0.000  0.000  0.000  0.000  0.082
    7  0.000  0.025  0.001  0.128  0.000  0.000  0.000  0.000  0.000  0.154
    8  0.000  0.001  0.014  0.128  0.000  0.000  0.000  0.000  0.000  0.142
tot    0.000  0.087  0.367  0.394  0.000  0.000  0.000  0.000  0.000  0.848
 
band    28 # energy   31.83606867 # occ.  0.00000000
 
ion      s     py     pz     px    dxy    dyz    dz2    dxz  x2-y2    tot
    1  0.000  0.011  0.073  0.070  0.000  0.000  0.000  0.000  0.000  0.154
    2  0.000  0.100  0.008  0.004  0.000  0.000  0.000  0.000  0.000  0.112
    3  0.000  0.100  0.018  0.028  0.000  0.000  0.000  0.000  0.000  0.146
    4  0.000  0.054  0.018  0.004  0.000  0.000  0.000  0.000  0.000  0.076
    5  0.000  0.054  0.008  0.028  0.000  0.000  0.000  0.000  0.000  0.090
    6  0.000  0.014  0.031  0.070  0.000  0.000  0.000  0.000  0.000  0.115
    7  0.000  0.014  0.073  0.013  0.000  0.000  0.000  0.000  0.000  0.100
    8  0.000  0.011  0.031  0.013  0.000  0.000  0.000  0.000  0.000  0.055
tot    0.000  0.358  0.259  0.231  0.000  0.000  0.000  0.000  0.000  0.848
 

 k-point     2 :    0.12500000 0.00000000 0.00000000     weight = 0.01171875

band     1 # energy  -11.36306074 # occ.  1.00000000
 
ion      s     py     pz     px    dxy    dyz    dz2    dxz  x2-y2    tot
    1  0.076  0.000  0.000  0.001  0.000  0.000  0.000  0.000  0.000  0.076
    2  0.076  0.000  0.000  0.001  0.000  0.000  0.000  0.000  0.000  0.076
    3  0.076  0.000  0.000  0.001  0.000  0.000  0.000  0.000  0.000  0.076
    4  0.076  0.000  0.000  0.001  0.000  0.000  0.000  0.000  0.000  0.076
    5  0.076  0.000  0.000  0.001  0.000  0.000  0.000  0.000  0.000  0.076
    6  0.076  0.000  0.000  0.001  0.000  0.000  0.000  0.000  0.000  0.076
    7  0.076  0.000  0.000  0.001  0.000  0.000  0.000  0.000  0.000  0.076
    8  0.076  0.000  0.000  0.001  0.000  0.000  0.000  0.000  0.000  0.076
tot    0.605  0.000  0.000  0.005  0.000  0.000  0.000  0.000  0.000  0.610
 
band     2 # energy   -3.89842674 # occ.  1.00000000
 
ion      s     py     pz     px    dxy    dyz    dz2    dxz  x2-y2    tot
    1  0.057  0.000  0.000  0.026  0.000  0.000  0.000  0.000  0.000  0.084
    2  0.057  0.000  0.000  0.026  0.000  0.000  0.000  0.000  0.000  0.084
    3  0.057  0.000  0.000  0.026  0.000  0.000  0.000  0.000  0.000  0.084
    4  0.057  0.000  0.000  0.026  0.000  0.000  0.000  0.000  0.000  0.084
    5  0.057  0.000  0.000  0.026  0.000  0.000  0.000  0.000  0.000  0.084
    6  0.057  0.000  0.000  0.026  0.000  0.000  0.000  0.000  0.000  0.084
    7  0.057  0.000  0.000  0.026  0.000  0.000  0.000  0.000  0.000  0.084
    8  0.057  0.000  0.000  0.026  0.000  0.000  0.000  0.000  0.000  0.084
tot    0.458  0.000  0.000  0.211  0.000  0.000  0.000  0.000  0.000  0.670
 
band     3 # energy   -1.60387823 # occ.  1.00000000
 
ion      s     py     pz     px    dxy    dyz    dz2    dxz  x2-y2    tot
    1  0.169  0.007  0.007  0.001  0.000  0.000  0.000  0.000  0.000  0.183
    2  0.000  0.026  0.027  0.000  0.000  0.000  0.000  0.000  0.000  0.053
    3  0.044  0.026  0.027  0.000  0.000  0.000  0.000  0.000  0.000  0.098
    4  0.000  0.026  0.027  0.000  0.000  0.000  0.000  0.000  0.000  0.053
    5  0.044  0.026  0.027  0.000  0.000  0.000  0.000  0.000  0.000  0.098
    6  0.169  0.007  0.007  0.001  0.000  0.000  0.000  0.000  0.000  0.183
    7  0.000  0.007  0.007  0.000  0.000  0.000  0.000  0.000  0.000  0.014
    8  0.000  0.007  0.007  0.000  0.000  0.000  0.000  0.000  0.000  0.014
tot    0.426  0.134  0.134  0.002  0.000  0.000  0.000  0.000  0.000  0.696
 
band     4 # energy   -1.60385244 # occ.  1.00000000
 
ion      s     py     pz     px    dxy    dyz    dz2    dxz  x2-y2    tot
    1  0.000  0.034  0.029  0.000  0.000  0.000  0.000  0.000  0.000  0.064
    2  0.202  0.001  0.002  0.001  0.000  0.000  0.000  0.000  0.000  0.206
    3  0.000  0.001  0.002  0.000  0.000  0.000  0.000  0.000  0.000  0.004
    4  0.202  0.001  0.002  0.001  0.000  0.000  0.000  0.000  0.000  0.206
    5  0.000  0.001  0.002  0.000  0.000  0.000  0.000  0.000  0.000  0.004
    6  0.000  0.034  0.029  0.000  0.000  0.000  0.000  0.000  0.000  0.064
    7  0.010  0.034  0.029  0.000  0.000  0.000  0.000  0.000  0.000  0.074
    8  0.010  0.034  0.029  0.000  0.000  0.000  0.000  0.000  0.000  0.074
tot    0.426  0.142  0.126  0.002  0.000  0.000  0.000  0.000  0.000  0.696
 
band     5 # energy   -1.60384140 # occ.  1.00000000
 
ion      s     py     pz     px    dxy    dyz    dz2    dxz  x2-y2    tot
    1  0.044  0.024  0.029  0.000  0.000  0.000  0.000  0.000  0.000  0.097
    2  0.000  0.007  0.007  0.000  0.000  0.000  0.000  0.000  0.000  0.014
    3  0.168  0.007  0.007  0.001  0.000  0.000  0.000  0.000  0.000  0.183
    4  0.000  0.007  0.007  0.000  0.000  0.000  0.000  0.000  0.000  0.014
    5  0.168  0.007  0.007  0.001  0.000  0.000  0.000  0.000  0.000  0.183
    6  0.044  0.024  0.029  0.000  0.000  0.000  0.000  0.000  0.000  0.097
    7  0.000  0.024  0.029  0.000  0.000  0.000  0.000  0.000  0.000  0.053
    8  0.000  0.024  0.029  0.000  0.000  0.000  0.000  0.000  0.000  0.053
tot    0.426  0.124  0.144  0.002  0.000  0.000  0.000  0.000  0.000  0.696
 
band     6 # energy   -1.60378251 # occ.  1.00000000
 
ion      s     py     pz     px    dxy    dyz    dz2    dxz  x2-y2    tot
    1  0.000  0.002  0.002  0.000  0.000  0.000  0.000  0.000  0.000  0.003
    2  0.010  0.032  0.032  0.000  0.000  0.000  0.000  0.000  0.000  0.074
    3  0.000  0.032  0.032  0.000  0.000  0.000  0.000  0.000  0.000  0.064
    4  0.010  0.032  0.032  0.000  0.000  0.000  0.000  0.000  0.000  0.074
    5  0.000  0.032  0.032  0.000  0.000  0.000  0.000  0.000  0.000  0.064
    6  0.000  0.002  0.002  0.000  0.000  0.000  0.000  0.000  0.000  0.003
    7  0.203  0.002  0.002  0.001  0.000  0.000  0.000  0.000  0.000  0.207
    8  0.203  0.002  0.002  0.001  0.000  0.000  0.000  0.000  0.000  0.207
tot    0.426  0.135  0.133  0.002  0.000  0.000  0.000  0.000  0.000  0.696
 
band     7 # energy    0.61596065 # occ.  1.00000000
 
ion      s     py     pz     px    dxy    dyz    dz2    dxz  x2-y2    tot
    1  0.048  0.000  0.000  0.042  0.000  0.000  0.000  0.000  0.000  0.090
    2  0.048  0.000  0.000  0.042  0.000  0.000  0.000  0.000  0.000  0.090
    3  0.048  0.000  0.000  0.042  0.000  0.000  0.000  0.000  0.000  0.090
    4  0.048  0.000  0.000  0.042  0.000  0.000  0.000  0.000  0.000  0.090
    5  0.048  0.000  0.000  0.042  0.000  0.000  0.000  0.000  0.000  0.090
    6  0.048  0.000  0.000  0.042  0.000  0.000  0.000  0.000  0.000  0.090
    7  0.048  0.000  0.000  0.042  0.000  0.000  0.000  0.000  0.000  0.090
    8  0.048  0.000  0.000  0.042  0.000  0.000  0.000  0.000  0.000  0.090
tot    0.385  0.000  0.000  0.333  0.000  0.000  0.000  0.000  0.000  0.718
 
band     8 # energy    4.57735172 # occ.  1.00000000
 
ion      s     py     pz     px    dxy    dyz    dz2    dxz  x2-y2    tot
    1  0.005  0.006  0.006  0.144  0.000  0.000  0.000  0.000  0.000  0.162
    2  0.000  0.037  0.038  0.000  0.000  0.000  0.000  0.000  0.000  0.076
    3  0.001  0.037  0.038  0.025  0.000  0.000  0.000  0.000  0.000  0.101
    4  0.000  0.037  0.038  0.000  0.000  0.000  0.000  0.000  0.000  0.076
    5  0.001  0.037  0.038  0.025  0.000  0.000  0.000  0.000  0.000  0.101
    6  0.005  0.006  0.006  0.144  0.000  0.000  0.000  0.000  0.000  0.162
    7  0.000  0.006  0.006  0.000  0.000  0.000  0.000  0.000  0.000  0.013
    8  0.000  0.006  0.006  0.000  0.000  0.000  0.000  0.000  0.000  0.013
tot    0.012  0.175  0.178  0.338  0.000  0.000  0.000  0.000  0.000  0.703
 
band     9 # energy    4.57737816 # occ.  1.00000000
 
ion      s     py     pz     px    dxy    dyz    dz2    dxz  x2-y2    tot
    1  0.000  0.040  0.035  0.000  0.000  0.000  0.000  0.000  0.000  0.075
    2  0.005  0.006  0.007  0.142  0.000  0.000  0.000  0.000  0.000  0.161
    3  0.000  0.006  0.007  0.000  0.000  0.000  0.000  0.000  0.000  0.014