<?xml version="1.0" encoding="ISO-8859-1"?>
<modeling>
 <generator>
  <i name="program" type="string">vasp </i>
  <i name="version" type="string">5.4.4.18Apr17-6-g9f103f2a35  </i>
  <i name="subversion" type="string">(build Jul  5 2023 12:24:19) complex            parallel </i>
  <i name="platform" type="string">NVIDIA22.7_CrayMPICH8.1.17 </i>
  <i name="date" type="string">2023 10 16 </i>
  <i name="time" type="string">23:30:57 </i>
 </generator>
 <incar>
  <i type="string" name="PREC">accurate</i>
  <i type="int" name="ISPIN">     2</i>
  <i type="int" name="ICHARG">     0</i>
  <i type="int" name="IBRION">     2</i>
  <i name="EDIFF">      0.00000100</i>
  <i name="EDIFFG">      0.00010000</i>
  <i type="int" name="NSW">   100</i>
  <i type="int" name="ISIF">     3</i>
  <i type="int" name="ISYM">     2</i>
  <i name="SYMPREC">      0.00010000</i>
  <i name="POTIM">      0.01500000</i>
  <i type="int" name="ISMEAR">    -5</i>
  <i name="SIGMA">      0.01000000</i>
  <i type="int" name="NWRITE">     0</i>
  <i name="PSTRESS">   1000.00000000</i>
  <i type="logical" name="LWAVE"> F  </i>
  <i type="logical" name="LCHARG"> F  </i>
  <i type="int" name="LORBIT">    11</i>
  <v type="int" name="KPOINT_BSE">    -1     0     0     0</v>
 </incar>
 <structure name="primitive_cell" >
  <crystal>
   <varray name="basis" >
    <v>       1.75593999       1.75593999      -0.00000702 </v>
    <v>       1.75593999      -0.00000000      -1.75594701 </v>
    <v>       0.00000000       1.75593999      -1.75594701 </v>
   </varray>
   <i name="volume">     10.82828983 </i>
   <varray name="rec_basis" >
    <v>       0.28474834       0.28474834       0.28474720 </v>
    <v>       0.28474720      -0.28474834      -0.28474720 </v>
    <v>      -0.28474834       0.28474720      -0.28474720 </v>
   </varray>
  </crystal>
  <varray name="positions" >
   <v>       0.27008605       0.24330497       0.24330497 </v>
   <v>      -0.47991595       0.49330597       0.49330597 </v>
  </varray>
 </structure>
 <varray name="primitive_index" >
  <v type="int" >        1 </v>
  <v type="int" >        2 </v>
 </varray>
 <kpoints>
  <generation param="Gamma">
   <v type="int" name="divisions">       8        8        8 </v>
   <v name="usershift">      0.00000000       0.00000000       0.00000000 </v>
   <v name="genvec1">      0.12500000       0.00000000       0.00000000 </v>
   <v name="genvec2">      0.00000000       0.12500000       0.00000000 </v>
   <v name="genvec3">      0.00000000       0.00000000       0.12500000 </v>
   <v name="shift">      0.00000000       0.00000000       0.00000000 </v>
  </generation>
  <varray name="kpointlist" >
   <v>       0.00000000       0.00000000       0.00000000 </v>
   <v>       0.12500000       0.00000000       0.00000000 </v>
   <v>       0.25000000       0.00000000       0.00000000 </v>
   <v>       0.37500000       0.00000000       0.00000000 </v>
   <v>       0.50000000       0.00000000       0.00000000 </v>
   <v>       0.12500000       0.12500000       0.00000000 </v>
   <v>       0.25000000       0.12500000       0.00000000 </v>
   <v>       0.37500000       0.12500000       0.00000000 </v>
   <v>       0.50000000       0.12500000       0.00000000 </v>
   <v>       0.25000000       0.25000000       0.00000000 </v>
   <v>       0.37500000       0.25000000       0.00000000 </v>
   <v>       0.50000000       0.25000000       0.00000000 </v>
   <v>       0.37500000       0.37500000       0.00000000 </v>
   <v>       0.50000000       0.37500000       0.00000000 </v>
   <v>       0.50000000       0.50000000       0.00000000 </v>
   <v>       0.12500000       0.12500000       0.12500000 </v>
   <v>       0.25000000       0.12500000       0.12500000 </v>
   <v>       0.37500000       0.12500000       0.12500000 </v>
   <v>       0.50000000       0.12500000       0.12500000 </v>
   <v>       0.25000000       0.25000000       0.12500000 </v>
   <v>       0.37500000       0.25000000       0.12500000 </v>
   <v>       0.50000000       0.25000000       0.12500000 </v>
   <v>       0.37500000       0.37500000       0.12500000 </v>
   <v>       0.50000000       0.37500000       0.12500000 </v>
   <v>       0.50000000       0.50000000       0.12500000 </v>
   <v>       0.25000000       0.25000000       0.25000000 </v>
   <v>       0.37500000       0.25000000       0.25000000 </v>
   <v>       0.50000000       0.25000000       0.25000000 </v>
   <v>       0.37500000       0.37500000       0.25000000 </v>
   <v>       0.50000000       0.37500000       0.25000000 </v>
   <v>       0.50000000       0.50000000       0.25000000 </v>
   <v>       0.37500000       0.37500000       0.37500000 </v>
   <v>       0.50000000       0.37500000       0.37500000 </v>
   <v>       0.50000000       0.50000000       0.37500000 </v>
   <v>       0.50000000       0.50000000       0.50000000 </v>
  </varray>
  <varray name="weights" >
   <v>       0.00195313 </v>
   <v>       0.01171875 </v>
   <v>       0.01171875 </v>
   <v>       0.01171875 </v>
   <v>       0.00585938 </v>
   <v>       0.02343750 </v>
   <v>       0.04687500 </v>
   <v>       0.04687500 </v>
   <v>       0.02343750 </v>
   <v>       0.02343750 </v>
   <v>       0.04687500 </v>
   <v>       0.02343750 </v>
   <v>       0.02343750 </v>
   <v>       0.02343750 </v>
   <v>       0.00585938 </v>
   <v>       0.01562500 </v>
   <v>       0.04687500 </v>
   <v>       0.04687500 </v>
   <v>       0.02343750 </v>
   <v>       0.04687500 </v>
   <v>       0.09375000 </v>
   <v>       0.04687500 </v>
   <v>       0.04687500 </v>
   <v>       0.04687500 </v>
   <v>       0.01171875 </v>
   <v>       0.01562500 </v>
   <v>       0.04687500 </v>
   <v>       0.02343750 </v>
   <v>       0.04687500 </v>
   <v>       0.04687500 </v>
   <v>       0.01171875 </v>
   <v>       0.01562500 </v>
   <v>       0.02343750 </v>
   <v>       0.01171875 </v>
   <v>       0.00195313 </v>
  </varray>
  <varray name="tetrahedronlist"  type="int" >
   <v type="int" >       12        1        2        2        6 </v>
   <v type="int" >       12        2        2        6        6 </v>
   <v type="int" >       12        2        6        6       16 </v>
   <v type="int" >       12        2        3        6        7 </v>
   <v type="int" >       12        2        6        6        7 </v>
   <v type="int" >       12        6        6        7       16 </v>
   <v type="int" >       12        3        6        7        7 </v>
   <v type="int" >       24        6        7        7       17 </v>
   <v type="int" >       24        6        7       16       17 </v>
   <v type="int" >       12        3        4        7        8 </v>
   <v type="int" >       12        3        7        7        8 </v>
   <v type="int" >       12        7        7        8       17 </v>
   <v type="int" >       12        4        7        8        8 </v>
   <v type="int" >       12        7        8        8       18 </v>
   <v type="int" >       12        7        8       17       18 </v>
   <v type="int" >       12        4        5        8        9 </v>
   <v type="int" >       12        4        8        8        9 </v>
   <v type="int" >       12        8        8        9       18 </v>
   <v type="int" >       12        5        8        9        9 </v>
   <v type="int" >       12        8        9        9       19 </v>
   <v type="int" >       12        8        9       18       19 </v>
   <v type="int" >       12        6        7       10       16 </v>
   <v type="int" >       12        7       10       16       17 </v>
   <v type="int" >       12       10       16       17       20 </v>
   <v type="int" >       12        7        8       11       17 </v>
   <v type="int" >       12        7       10       11       17 </v>
   <v type="int" >       12       10       11       17       20 </v>
   <v type="int" >       12        8       11       17       18 </v>
   <v type="int" >       12       11       17       18       21 </v>
   <v type="int" >       12       11       17       20       21 </v>
   <v type="int" >       12        8        9       12       18 </v>
   <v type="int" >       12        8       11       12       18 </v>
   <v type="int" >       12       11       12       18       21 </v>
   <v type="int" >       12        9       12       18       19 </v>
   <v type="int" >       12       12       18       19       22 </v>
   <v type="int" >       12       12       18       21       22 </v>
   <v type="int" >       12        8        9       11       19 </v>
   <v type="int" >       12        9       11       12       19 </v>
   <v type="int" >       12       11       12       19       22 </v>
   <v type="int" >       12        8       11       18       19 </v>
   <v type="int" >       12       11       18       19       21 </v>
   <v type="int" >       12       11       19       21       22 </v>
   <v type="int" >       12        7        8       10       18 </v>
   <v type="int" >       12        8       10       11       18 </v>
   <v type="int" >       12       10       11       18       21 </v>
   <v type="int" >       12        7       10       17       18 </v>
   <v type="int" >       12       10       17       18       20 </v>
   <v type="int" >       12       10       18       20       21 </v>
   <v type="int" >       12        7        7       10       17 </v>
   <v type="int" >       12        7       10       17       20 </v>
   <v type="int" >       12        7       16       17       17 </v>
   <v type="int" >       12        7       17       17       20 </v>
   <v type="int" >       12        2        3        6       16 </v>
   <v type="int" >       12        3        6        7       16 </v>
   <v type="int" >       12        3        7       16       17 </v>
   <v type="int" >       12       10       11       13       20 </v>
   <v type="int" >       12       11       13       20       21 </v>
   <v type="int" >       12       13       20       21       23 </v>
   <v type="int" >       12       11       12       14       21 </v>
   <v type="int" >       12       11       13       14       21 </v>
   <v type="int" >       12       13       14       21       23 </v>
   <v type="int" >       12       12       14       21       22 </v>
   <v type="int" >       12       14       21       22       24 </v>
   <v type="int" >       12       14       21       23       24 </v>
   <v type="int" >       12       11       12       13       22 </v>
   <v type="int" >       12       12       13       14       22 </v>
   <v type="int" >       12       13       14       22       24 </v>
   <v type="int" >       12       11       13       21       22 </v>
   <v type="int" >       12       13       21       22       23 </v>
   <v type="int" >       12       13       22       23       24 </v>
   <v type="int" >       12       10       11       11       21 </v>
   <v type="int" >       12       11       11       13       21 </v>
   <v type="int" >       12       11       13       21       23 </v>
   <v type="int" >       12       10       11       20       21 </v>
   <v type="int" >       12       11       20       21       21 </v>
   <v type="int" >       12       11       21       21       23 </v>
   <v type="int" >       12        7        8       10       20 </v>
   <v type="int" >       12        8       10       11       20 </v>
   <v type="int" >       12        8       11       20       21 </v>
   <v type="int" >       12        7        8       17       20 </v>
   <v type="int" >       12        8       17       18       20 </v>
   <v type="int" >       12        8       18       20       21 </v>
   <v type="int" >       12        3        4        7       17 </v>
   <v type="int" >       12        4        7        8       17 </v>
   <v type="int" >       12        4        8       17       18 </v>
   <v type="int" >       12       13       14       15       23 </v>
   <v type="int" >       12       14       15       23       24 </v>
   <v type="int" >       12       15       23       24       25 </v>
   <v type="int" >       12       13       14       14       24 </v>
   <v type="int" >       12       14       14       15       24 </v>
   <v type="int" >       12       14       15       24       25 </v>
   <v type="int" >       12       13       14       23       24 </v>
   <v type="int" >       12       14       23       24       24 </v>
   <v type="int" >       12       14       24       24       25 </v>
   <v type="int" >       12       11       12       13       23 </v>
   <v type="int" >       12       12       13       14       23 </v>
   <v type="int" >       12       12       14       23       24 </v>
   <v type="int" >       12       11       12       21       23 </v>
   <v type="int" >       12       12       21       22       23 </v>
   <v type="int" >       12       12       22       23       24 </v>
   <v type="int" >       12        8        9       11       21 </v>
   <v type="int" >       12        9       11       12       21 </v>
   <v type="int" >       12        9       12       21       22 </v>
   <v type="int" >       12        8        9       18       21 </v>
   <v type="int" >       12        9       18       19       21 </v>
   <v type="int" >       12        9       19       21       22 </v>
   <v type="int" >       12        4        5        8       18 </v>
   <v type="int" >       12        5        8        9       18 </v>
   <v type="int" >       12        5        9       18       19 </v>
   <v type="int" >       12       13       14       15       25 </v>
   <v type="int" >       12       13       14       24       25 </v>
   <v type="int" >       12       13       23       24       25 </v>
   <v type="int" >       12       11       12       14       24 </v>
   <v type="int" >       12       11       13       14       24 </v>
   <v type="int" >       12       11       13       23       24 </v>
   <v type="int" >       12       11       12       22       24 </v>
   <v type="int" >       12       11       21       22       24 </v>
   <v type="int" >       12       11       21       23       24 </v>
   <v type="int" >       12        8        9       12       22 </v>
   <v type="int" >       12        8       11       12       22 </v>
   <v type="int" >       12        8       11       21       22 </v>
   <v type="int" >       12        8        9       19       22 </v>
   <v type="int" >       12        8       18       19       22 </v>
   <v type="int" >       12        8       18       21       22 </v>
   <v type="int" >       12        4        5        9       19 </v>
   <v type="int" >       12        4        8        9       19 </v>
   <v type="int" >       12        4        8       18       19 </v>
   <v type="int" >       12       10       11       13       23 </v>
   <v type="int" >       12       10       11       21       23 </v>
   <v type="int" >       12       10       20       21       23 </v>
   <v type="int" >       12        7        8       11       21 </v>
   <v type="int" >       12        7       10       11       21 </v>
   <v type="int" >       12        7       10       20       21 </v>
   <v type="int" >       12        7        8       18       21 </v>
   <v type="int" >       12        7       17       18       21 </v>
   <v type="int" >       12        7       17       20       21 </v>
   <v type="int" >       12        3        4        8       18 </v>
   <v type="int" >       12        3        7        8       18 </v>
   <v type="int" >       12        3        7       17       18 </v>
   <v type="int" >       12        6        7       10       20 </v>
   <v type="int" >       12        6        7       17       20 </v>
   <v type="int" >       12        6       16       17       20 </v>
   <v type="int" >       12        2        3        7       17 </v>
   <v type="int" >       12        2        6        7       17 </v>
   <v type="int" >       12        2        6       16       17 </v>
   <v type="int" >       12        1        2        6       16 </v>
   <v type="int" >       12       16       17       17       20 </v>
   <v type="int" >       12       17       17       20       20 </v>
   <v type="int" >       12       17       20       20       26 </v>
   <v type="int" >       12       17       18       20       21 </v>
   <v type="int" >       12       17       20       20       21 </v>
   <v type="int" >       12       20       20       21       26 </v>
   <v type="int" >       12       18       20       21       21 </v>
   <v type="int" >       24       20       21       21       27 </v>
   <v type="int" >       24       20       21       26       27 </v>
   <v type="int" >       12       18       19       21       22 </v>
   <v type="int" >       12       18       21       21       22 </v>
   <v type="int" >       12       21       21       22       27 </v>
   <v type="int" >       12       19       21       22       22 </v>
   <v type="int" >       12       21       22       22       28 </v>
   <v type="int" >       12       21       22       27       28 </v>
   <v type="int" >       12       20       21       23       26 </v>
   <v type="int" >       12       21       23       26       27 </v>
   <v type="int" >       12       23       26       27       29 </v>
   <v type="int" >       12       21       22       24       27 </v>
   <v type="int" >       12       21       23       24       27 </v>
   <v type="int" >       12       23       24       27       29 </v>
   <v type="int" >       12       22       24       27       28 </v>
   <v type="int" >       12       24       27       28       30 </v>
   <v type="int" >       12       24       27       29       30 </v>
   <v type="int" >       12       21       22       23       28 </v>
   <v type="int" >       12       22       23       24       28 </v>
   <v type="int" >       12       23       24       28       30 </v>
   <v type="int" >       12       21       23       27       28 </v>
   <v type="int" >       12       23       27       28       29 </v>
   <v type="int" >       12       23       28       29       30 </v>
   <v type="int" >       12       21       21       23       27 </v>
   <v type="int" >       12       21       23       27       29 </v>
   <v type="int" >       12       21       26       27       27 </v>
   <v type="int" >       12       21       27       27       29 </v>
   <v type="int" >       12       17       18       20       26 </v>
   <v type="int" >       12       18       20       21       26 </v>
   <v type="int" >       12       18       21       26       27 </v>
   <v type="int" >       12       23       24       25       29 </v>
   <v type="int" >       12       24       25       29       30 </v>
   <v type="int" >       12       25       29       30       31 </v>
   <v type="int" >       12       23       24       24       30 </v>
   <v type="int" >       12       24       24       25       30 </v>
   <v type="int" >       12       24       25       30       31 </v>
   <v type="int" >       12       23       24       29       30 </v>
   <v type="int" >       12       24       29       30       30 </v>
   <v type="int" >       12       24       30       30       31 </v>
   <v type="int" >       12       21       22       23       29 </v>
   <v type="int" >       12       22       23       24       29 </v>
   <v type="int" >       12       22       24       29       30 </v>
   <v type="int" >       12       21       22       27       29 </v>
   <v type="int" >       12       22       27       28       29 </v>
   <v type="int" >       12       22       28       29       30 </v>
   <v type="int" >       12       18       19       21       27 </v>
   <v type="int" >       12       19       21       22       27 </v>
   <v type="int" >       12       19       22       27       28 </v>
   <v type="int" >       12       23       24       25       31 </v>
   <v type="int" >       12       23       24       30       31 </v>
   <v type="int" >       12       23       29       30       31 </v>
   <v type="int" >       12       21       22       24       30 </v>
   <v type="int" >       12       21       23       24       30 </v>
   <v type="int" >       12       21       23       29       30 </v>
   <v type="int" >       12       21       22       28       30 </v>
   <v type="int" >       12       21       27       28       30 </v>
   <v type="int" >       12       21       27       29       30 </v>
   <v type="int" >       12       18       19       22       28 </v>
   <v type="int" >       12       18       21       22       28 </v>
   <v type="int" >       12       18       21       27       28 </v>
   <v type="int" >       12       20       21       23       29 </v>
   <v type="int" >       12       20       21       27       29 </v>
   <v type="int" >       12       20       26       27       29 </v>
   <v type="int" >       12       17       18       21       27 </v>
   <v type="int" >       12       17       20       21       27 </v>
   <v type="int" >       12       17       20       26       27 </v>
   <v type="int" >       12       16       17       20       26 </v>
   <v type="int" >       12       26       27       27       29 </v>
   <v type="int" >       12       27       27       29       29 </v>
   <v type="int" >       12       27       29       29       32 </v>
   <v type="int" >       12       27       28       29       30 </v>
   <v type="int" >       12       27       29       29       30 </v>
   <v type="int" >       12       29       29       30       32 </v>
   <v type="int" >       12       28       29       30       30 </v>
   <v type="int" >       24       29       30       30       33 </v>
   <v type="int" >       24       29       30       32       33 </v>
   <v type="int" >       12       29       30       31       32 </v>
   <v type="int" >       12       30       31       32       33 </v>
   <v type="int" >       12       31       32       33       34 </v>
   <v type="int" >       12       30       30       31       33 </v>
   <v type="int" >       12       30       31       33       34 </v>
   <v type="int" >       12       30       32       33       33 </v>
   <v type="int" >       12       30       33       33       34 </v>
   <v type="int" >       12       27       28       29       32 </v>
   <v type="int" >       12       28       29       30       32 </v>
   <v type="int" >       12       28       30       32       33 </v>
   <v type="int" >       12       29       30       31       34 </v>
   <v type="int" >       12       29       30       33       34 </v>
   <v type="int" >       12       29       32       33       34 </v>
   <v type="int" >       12       27       28       30       33 </v>
   <v type="int" >       12       27       29       30       33 </v>
   <v type="int" >       12       27       29       32       33 </v>
   <v type="int" >       12       26       27       29       32 </v>
   <v type="int" >       12       32       33       33       34 </v>
   <v type="int" >       12       33       33       34       34 </v>
   <v type="int" >       12       33       34       34       35 </v>
   <v type="int" >       12       32       33       34       35 </v>
  </varray>
  <i name="volumeweight">      0.00032552 </i>
 </kpoints>
 <parameters>
  <separator name="general" >
   <i type="string" name="SYSTEM">unknown system</i>
   <i type="logical" name="LCOMPAT"> F  </i>
  </separator>
  <separator name="electronic" >
   <i type="string" name="PREC">accura</i>
   <i name="ENMAX">    400.00000000</i>
   <i name="ENAUG">    644.87300000</i>
   <i name="EDIFF">      0.00000100</i>
   <i type="int" name="IALGO">    38</i>
   <i type="int" name="IWAVPR">    11</i>
   <i type="int" name="NBANDS">    28</i>
   <i name="NELECT">     32.00000000</i>
   <i type="int" name="TURBO">     0</i>
   <i type="int" name="IRESTART">     0</i>
   <i type="int" name="NREBOOT">     0</i>
   <i type="int" name="NMIN">     0</i>
   <i name="EREF">      0.00000000</i>
   <separator name="electronic smearing" >
    <i type="int" name="ISMEAR">    -5</i>
    <i name="SIGMA">      0.01000000</i>
    <i name="KSPACING">      0.50000000</i>
    <i type="logical" name="KGAMMA"> T  </i>
   </separator>
   <separator name="electronic projectors" >
    <i type="logical" name="LREAL"> F  </i>
    <v name="ROPT">      0.00000000</v>
    <i type="int" name="LMAXPAW">  -100</i>
    <i type="int" name="LMAXMIX">     2</i>
    <i type="logical" name="NLSPLINE"> F  </i>
   </separator>
   <separator name="electronic startup" >
    <i type="int" name="ISTART">     0</i>
    <i type="int" name="ICHARG">     0</i>
    <i type="int" name="INIWAV">     1</i>
   </separator>
   <separator name="electronic spin" >
    <i type="int" name="ISPIN">     2</i>
    <i type="logical" name="LNONCOLLINEAR"> F  </i>
    <v name="MAGMOM">      1.00000000      1.00000000      1.00000000      1.00000000      1.00000000      1.00000000      1.00000000      1.00000000</v>
    <i name="NUPDOWN">     -1.00000000</i>
    <i type="logical" name="LSORBIT"> F  </i>
    <v name="SAXIS">      0.00000000      0.00000000      1.00000000</v>
    <i type="logical" name="LSPIRAL"> F  </i>
    <v name="QSPIRAL">      0.00000000      0.00000000      0.00000000</v>
    <i type="logical" name="LZEROZ"> F  </i>
   </separator>
   <separator name="electronic exchange-correlation" >
    <i type="logical" name="LASPH"> F  </i>
    <i type="logical" name="LMETAGGA"> F  </i>
   </separator>
   <separator name="electronic convergence" >
    <i type="int" name="NELM">    60</i>
    <i type="int" name="NELMDL">    -5</i>
    <i type="int" name="NELMIN">     2</i>
    <i name="ENINI">    400.00000000</i>
    <separator name="electronic convergence detail" >
     <i type="logical" name="LDIAG"> T  </i>
     <i type="logical" name="LSUBROT"> F  </i>
     <i name="WEIMIN">      0.00100000</i>
     <i name="EBREAK">      0.00000001</i>
     <i name="DEPER">      0.30000000</i>
     <i type="int" name="NRMM">     4</i>
     <i name="TIME">      0.40000000</i>
    </separator>
   </separator>
   <separator name="electronic mixer" >
    <i name="AMIX">      0.40000000</i>
    <i name="BMIX">      1.00000000</i>
    <i name="AMIN">      0.10000000</i>
    <i name="AMIX_MAG">      1.60000000</i>
    <i name="BMIX_MAG">      1.00000000</i>
    <separator name="electronic mixer details" >
     <i type="int" name="IMIX">     4</i>
     <i type="logical" name="MIXFIRST"> F  </i>
     <i type="int" name="MAXMIX">   -45</i>
     <i name="WC">    100.00000000</i>
     <i type="int" name="INIMIX">     1</i>
     <i type="int" name="MIXPRE">     1</i>
     <i type="int" name="MREMOVE">     5</i>
    </separator>
   </separator>
   <separator name="electronic dipolcorrection" >
    <i type="logical" name="LDIPOL"> F  </i>
    <i type="logical" name="LMONO"> F  </i>
    <i type="int" name="IDIPOL">     0</i>
    <i name="EPSILON">      1.00000000</i>
    <v name="DIPOL">   -100.00000000   -100.00000000   -100.00000000</v>
    <i name="EFIELD">      0.00000000</i>
   </separator>
  </separator>
  <separator name="grids" >
   <i type="int" name="NGX">    24</i>
   <i type="int" name="NGY">    24</i>
   <i type="int" name="NGZ">    24</i>
   <i type="int" name="NGXF">    48</i>
   <i type="int" name="NGYF">    48</i>
   <i type="int" name="NGZF">    48</i>
   <i type="logical" name="ADDGRID"> F  </i>
  </separator>
  <separator name="ionic" >
   <i type="int" name="NSW">   100</i>
   <i type="int" name="IBRION">     2</i>
   <i type="int" name="MDALGO">     0</i>
   <i type="int" name="ISIF">     3</i>
   <i name="PSTRESS">   1000.00000000</i>
   <i name="EDIFFG">      0.00010000</i>
   <i type="int" name="NFREE">     1</i>
   <i name="POTIM">      0.01500000</i>
   <i name="SMASS">     -3.00000000</i>
   <i name="SCALEE">      1.00000000</i>
  </separator>
  <separator name="ionic md" >
   <i name="TEBEG">      0.00010000</i>
   <i name="TEEND">      0.00010000</i>
   <i type="int" name="NBLOCK">     1</i>
   <i type="int" name="KBLOCK">   100</i>
   <i type="int" name="NPACO">   256</i>
   <i name="APACO">     16.00000000</i>
  </separator>
  <separator name="symmetry" >
   <i type="int" name="ISYM">     2</i>
   <i name="SYMPREC">      0.00010000</i>
  </separator>
  <separator name="dos" >
   <i type="int" name="LORBIT">    11</i>
   <v name="RWIGS">     -1.00000000</v>
   <i type="int" name="NEDOS">   301</i>
   <i name="EMIN">     10.00000000</i>
   <i name="EMAX">    -10.00000000</i>
   <i name="EFERMI">      0.00000000</i>
  </separator>
  <separator name="writing" >
   <i type="int" name="NWRITE">     0</i>
   <i type="logical" name="LWAVE"> F  </i>
   <i type="logical" name="LDOWNSAMPLE"> F  </i>
   <i type="logical" name="LCHARG"> F  </i>
   <i type="logical" name="LPARD"> F  </i>
   <i type="logical" name="LVTOT"> F  </i>
   <i type="logical" name="LVHAR"> F  </i>
   <i type="logical" name="LELF"> F  </i>
   <i type="logical" name="LOPTICS"> F  </i>
   <v name="STM">      0.00000000      0.00000000      0.00000000      0.00000000      0.00000000      0.00000000      0.00000000</v>
  </separator>
  <separator name="performance" >
   <i type="int" name="NPAR">     4</i>
   <i type="int" name="NSIM">     4</i>
   <i type="int" name="NBLK">    -1</i>
   <i type="logical" name="LPLANE"> T  </i>
   <i type="logical" name="LSCALAPACK"> T  </i>
   <i type="logical" name="LSCAAWARE"> F  </i>
   <i type="logical" name="LSCALU"> F  </i>
   <i type="logical" name="LASYNC"> F  </i>
   <i type="logical" name="LORBITALREAL"> F  </i>
  </separator>
  <separator name="miscellaneous" >
   <i type="int" name="IDIOT">     3</i>
   <i type="int" name="ISPECIAL">     0</i>
   <i type="logical" name="LMUSIC"> F  </i>
   <v name="POMASS">     12.01100000</v>
   <v name="DARWINR">      0.00000000</v>
   <v name="DARWINV">      1.00000000</v>
   <i type="logical" name="LCORR"> T  </i>
  </separator>
  <i type="logical" name="GGA_COMPAT"> T  </i>
  <i type="logical" name="LBERRY"> F  </i>
  <i type="int" name="ICORELEVEL">     0</i>
  <i type="logical" name="LDAU"> F  </i>
  <i type="int" name="I_CONSTRAINED_M">     0</i>
  <separator name="electronic exchange-correlation" >
   <i type="string" name="GGA">--</i>
   <i type="int" name="VOSKOWN">     0</i>
   <i type="logical" name="LHFCALC"> F  </i>
   <i type="string" name="PRECFOCK"></i>
   <i type="logical" name="LSYMGRAD"> F  </i>
   <i type="logical" name="LHFONE"> F  </i>
   <i type="logical" name="LRHFCALC"> F  </i>
   <i type="logical" name="LTHOMAS"> F  </i>
   <i type="logical" name="LMODELHF"> F  </i>
   <i name="ENCUT4O">     -1.00000000</i>
   <i type="int" name="EXXOEP">     0</i>
   <i type="int" name="FOURORBIT">     0</i>
   <i name="AEXX">      0.00000000</i>
   <i name="HFALPHA">      0.00000000</i>
   <i name="MCALPHA">      0.00000000</i>
   <i name="ALDAX">      1.00000000</i>
   <i name="AGGAX">      1.00000000</i>
   <i name="ALDAC">      1.00000000</i>
   <i name="AGGAC">      1.00000000</i>
   <i type="int" name="NKREDX">     1</i>
   <i type="int" name="NKREDY">     1</i>
   <i type="int" name="NKREDZ">     1</i>
   <i type="logical" name="SHIFTRED"> F  </i>
   <i type="logical" name="ODDONLY"> F  </i>
   <i type="logical" name="EVENONLY"> F  </i>
   <i type="int" name="LMAXFOCK">     0</i>
   <i type="int" name="NMAXFOCKAE">     0</i>
   <i type="logical" name="LFOCKAEDFT"> F  </i>
   <i name="HFSCREEN">      0.00000000</i>
   <i name="HFSCREENC">      0.00000000</i>
   <i type="int" name="NBANDSGWLOW">     0</i>
  </separator>
  <separator name="vdW DFT" >
   <i type="logical" name="LUSE_VDW"> F  </i>
   <i name="Zab_VDW">     -0.84910000</i>
   <i name="PARAM1">      0.12340000</i>
   <i name="PARAM2">      1.00000000</i>
   <i name="PARAM3">      0.00000000</i>
  </separator>
  <separator name="model GW" >
   <i type="int" name="MODEL_GW">     0</i>
   <i name="MODEL_EPS0">      3.24849994</i>
   <i name="MODEL_ALPHA">      1.00000000</i>
  </separator>
  <separator name="linear response parameters" >
   <i type="logical" name="LEPSILON"> F  </i>
   <i type="logical" name="LRPA"> F  </i>
   <i type="logical" name="LNABLA"> F  </i>
   <i type="logical" name="LVEL"> F  </i>
   <i type="int" name="KINTER">     0</i>
   <i name="CSHIFT">      0.10000000</i>
   <i name="OMEGAMAX">     -1.00000000</i>
   <i name="DEG_THRESHOLD">      0.00200000</i>
   <i name="RTIME">     -0.10000000</i>
   <i name="WPLASMAI">      0.00000000</i>
   <v name="DFIELD">      0.00000000      0.00000000      0.00000000</v>
   <v name="WPLASMA">      0.00000000      0.00000000      0.00000000      0.00000000      0.00000000      0.00000000      0.00000000      0.00000000      0.00000000</v>
  </separator>
  <separator name="orbital magnetization" >
   <i type="logical" name="NUCIND"> F  </i>
   <v name="MAGPOS">      0.00000000      0.00000000      0.00000000</v>
   <i type="logical" name="LNICSALL"> T  </i>
   <i type="logical" name="ORBITALMAG"> F  </i>
   <i type="logical" name="LMAGBLOCH"> F  </i>
   <i type="logical" name="LCHIMAG"> F  </i>
   <i type="logical" name="LGAUGE"> T  </i>
   <i type="int" name="MAGATOM">     0</i>
   <v name="MAGDIPOL">      0.00000000      0.00000000      0.00000000</v>
   <v name="AVECCONST">      0.00000000      0.00000000      0.00000000</v>
  </separator>
  <separator name="response functions" >
   <i type="logical" name="LADDER"> F  </i>
   <i type="logical" name="LRPAFORCE"> F  </i>
   <i type="logical" name="LFXC"> F  </i>
   <i type="logical" name="LHARTREE"> T  </i>
   <i type="int" name="IBSE">     0</i>
   <v type="int" name="KPOINT">    -1     0     0     0</v>
   <i type="logical" name="LTCTE"> F  </i>
   <i type="logical" name="LTETE"> F  </i>
   <i type="logical" name="LTRIPLET"> F  </i>
   <i type="logical" name="LFXCEPS"> F  </i>
   <i type="logical" name="LFXHEG"> F  </i>
   <i type="int" name="NATURALO">     2</i>
   <i type="logical" name="L2ORDER"> F  </i>
   <i type="logical" name="LMP2LT"> F  </i>
   <i type="logical" name="LUSEW"> F  </i>
   <i name="ENCUTGW">     -2.00000000</i>
   <i name="ENCUTGWSOFT">     -2.00000000</i>
   <i name="ENCUTLF">     -1.00000000</i>
   <i type="int" name="LMAXMP2">    -1</i>
   <i name="SCISSOR">      0.00000000</i>
   <i type="int" name="NOMEGA">     0</i>
   <i type="int" name="NOMEGAR">     0</i>
   <i type="int" name="NBANDSGW">    -1</i>
   <i type="int" name="NBANDSO">    -1</i>
   <i type="int" name="NBANDSV">    -1</i>
   <i type="int" name="NELM">     1</i>
   <i type="int" name="NELMHF">     1</i>
   <i type="int" name="DIM">     3</i>
   <i type="int" name="ANTIRES">     0</i>
   <i name="OMEGAMAX">    -30.00000000</i>
   <i name="OMEGAMIN">    -30.00000000</i>
   <i name="OMEGATL">   -200.00000000</i>
   <i type="int" name="OMEGAGRID">   140</i>
   <i name="CSHIFT">     -0.10000000</i>
   <i type="logical" name="SELFENERGY"> F  </i>
   <i type="logical" name="LSPECTRAL"> F  </i>
   <i type="logical" name="LSPECTRALGW"> F  </i>
   <i type="logical" name="LSINGLES"> F  </i>
   <i type="logical" name="LFERMIGW"> F  </i>
   <i type="logical" name="ODDONLYGW"> F  </i>
   <i type="logical" name="EVENONLYGW"> F  </i>
   <i type="int" name="NKREDLFX">     1</i>
   <i type="int" name="NKREDLFY">     1</i>
   <i type="int" name="NKREDLFZ">     1</i>
   <i type="int" name="MAXMEM">  2800</i>
   <i type="int" name="TELESCOPE">     0</i>
   <i type="int" name="TAUPAR">     1</i>
   <i type="int" name="OMEGAPAR">    -1</i>
   <i name="LAMBDA">      1.00000000</i>
  </separator>
  <separator name="External order field" >
   <i name="OFIELD_KAPPA">      0.00000000</i>
   <v name="OFIELD_K">      0.00000000      0.00000000      0.00000000</v>
   <i name="OFIELD_Q6_NEAR">      0.00000000</i>
   <i name="OFIELD_Q6_FAR">      0.00000000</i>
   <i name="OFIELD_A">      0.00000000</i>
  </separator>
 </parameters>
 <atominfo>
  <atoms>       8 </atoms>
  <types>       1 </types>
  <array name="atoms" >
   <dimension dim="1">ion</dimension>
   <field type="string">element</field>
   <field type="int">atomtype</field>
   <set>
    <rc><c>C </c><c>   1</c></rc>
    <rc><c>C </c><c>   1</c></rc>
    <rc><c>C </c><c>   1</c></rc>
    <rc><c>C </c><c>   1</c></rc>
    <rc><c>C </c><c>   1</c></rc>
    <rc><c>C </c><c>   1</c></rc>
    <rc><c>C </c><c>   1</c></rc>
    <rc><c>C </c><c>   1</c></rc>
   </set>
  </array>
  <array name="atomtypes" >
   <dimension dim="1">type</dimension>
   <field type="int">atomspertype</field>
   <field type="string">element</field>
   <field>mass</field>
   <field>valence</field>
   <field type="string">pseudopotential</field>
   <set>
    <rc><c>   8</c><c>C </c><c>     12.01100000</c><c>      4.00000000</c><c> PAW_PBE C 08Apr2002                    </c></rc>
   </set>
  </array>
 </atominfo>
 <structure name="initialpos" >
  <crystal>
   <varray name="basis" >
    <v>       3.51188700      -0.00000000      -0.00000000 </v>
    <v>       0.00000000       3.51188700      -0.00000000 </v>
    <v>       0.00000000       0.00000000       3.51188700 </v>
   </varray>
   <i name="volume">     43.31333259 </i>
   <varray name="rec_basis" >
    <v>       0.28474720      -0.00000000       0.00000000 </v>
    <v>       0.00000000       0.28474720      -0.00000000 </v>
    <v>       0.00000000       0.00000000       0.28474720 </v>
   </varray>
  </crystal>
  <varray name="positions" >
   <v>       0.75669600       0.75669600       0.75669600 </v>
   <v>       0.00669500       0.50669600       0.00669500 </v>
   <v>       0.50669600       0.50669600       0.50669600 </v>
   <v>       0.00669500       0.00669500       0.50669600 </v>
   <v>       0.50669600       0.00669500       0.00669500 </v>
   <v>       0.75669600       0.25669600       0.25669600 </v>
   <v>       0.25669600       0.25669600       0.75669600 </v>
   <v>       0.25669600       0.75669600       0.25669600 </v>
  </varray>
 </structure>
 <calculation>
  <scstep>
   <time name="dav">    0.59    0.59</time>
   <time name="total">    0.65    0.65</time>
   <energy>
    <i name="alphaZ">    120.39550375 </i>
    <i name="ewald">  -1413.59899669 </i>
    <i name="hartreedc">     -2.58221799 </i>
    <i name="XCdc">    109.41487070 </i>
    <i name="pawpsdc">    103.69076704 </i>
    <i name="pawaedc">   -108.69556966 </i>
    <i name="eentropy">      0.00000000 </i>
    <i name="bandstr">    -33.51295717 </i>
    <i name="atom">   1177.01779097 </i>
    <i name="e_fr_energy">    -47.87080904 </i>
    <i name="e_wo_entrp">    -47.87080904 </i>
    <i name="e_0_energy">    -47.87080904 </i>
   </energy>
  </scstep>
  <scstep>
   <time name="dav">    0.70    0.70</time>
   <time name="total">    0.70    0.71</time>
   <energy>
    <i name="e_fr_energy">   -179.37952034 </i>
    <i name="e_wo_entrp">   -179.37952034 </i>
    <i name="e_0_energy">   -179.37952034 </i>
   </energy>
  </scstep>
  <scstep>
   <time name="dav">    0.71    0.71</time>
   <time name="total">    0.72    0.72</time>
   <energy>
    <i name="e_fr_energy">   -184.66525852 </i>
    <i name="e_wo_entrp">   -184.66525852 </i>
    <i name="e_0_energy">   -184.66525852 </i>
   </energy>
  </scstep>
  <scstep>
   <time name="dav">    0.68    0.68</time>
   <time name="total">    0.68    0.68</time>
   <energy>
    <i name="e_fr_energy">   -184.74605421 </i>
    <i name="e_wo_entrp">   -184.74605421 </i>
    <i name="e_0_energy">   -184.74605421 </i>
   </energy>
  </scstep>
  <scstep>
   <time name="dav">    0.71    0.71</time>
   <time name="total">    0.75    0.75</time>
   <energy>
    <i name="e_fr_energy">   -184.74812255 </i>
    <i name="e_wo_entrp">   -184.74812255 </i>
    <i name="e_0_energy">   -184.74812255 </i>
   </energy>
  </scstep>
  <scstep>
   <time name="dav">    0.61    0.61</time>
   <time name="total">    0.66    0.66</time>
   <energy>
    <i name="e_fr_energy">   -102.46394007 </i>
    <i name="e_wo_entrp">   -102.46394007 </i>
    <i name="e_0_energy">   -102.46394007 </i>
   </energy>
  </scstep>
  <scstep>
   <time name="dav">    0.64    0.64</time>
   <time name="total">    0.69    0.69</time>
   <energy>
    <i name="e_fr_energy">    -72.27754937 </i>
    <i name="e_wo_entrp">    -72.27754937 </i>
    <i name="e_0_energy">    -72.27754937 </i>
   </energy>
  </scstep>
  <scstep>
   <time name="dav">    0.66    0.66</time>
   <time name="total">    0.71    0.71</time>
   <energy>
    <i name="e_fr_energy">    -72.53052689 </i>
    <i name="e_wo_entrp">    -72.53052689 </i>
    <i name="e_0_energy">    -72.53052689 </i>
   </energy>
  </scstep>
  <scstep>
   <time name="dav">    0.64    0.64</time>
   <time name="total">    0.69    0.69</time>
   <energy>
    <i name="e_fr_energy">    -72.57042023 </i>
    <i name="e_wo_entrp">    -72.57042023 </i>
    <i name="e_0_energy">    -72.57042023 </i>
   </energy>
  </scstep>
  <scstep>
   <time name="dav">    0.63    0.63</time>
   <time name="total">    0.68    0.69</time>
   <energy>
    <i name="e_fr_energy">    -72.58145661 </i>
    <i name="e_wo_entrp">    -72.58145661 </i>
    <i name="e_0_energy">    -72.58145661 </i>
   </energy>
  </scstep>
  <scstep>
   <time name="dav">    0.66    0.66</time>
   <time name="total">    0.71    0.71</time>
   <energy>
    <i name="e_fr_energy">    -72.58204422 </i>
    <i name="e_wo_entrp">    -72.58204422 </i>
    <i name="e_0_energy">    -72.58204422 </i>
   </energy>
  </scstep>
  <scstep>
   <time name="dav">    0.62    0.62</time>
   <time name="total">    0.67    0.67</time>
   <energy>
    <i name="e_fr_energy">    -72.58236408 </i>
    <i name="e_wo_entrp">    -72.58236408 </i>
    <i name="e_0_energy">    -72.58236408 </i>
   </energy>
  </scstep>
  <scstep>
   <time name="dav">    0.65    0.65</time>
   <time name="total">    0.70    0.70</time>
   <energy>
    <i name="e_fr_energy">    -72.58237272 </i>
    <i name="e_wo_entrp">    -72.58237272 </i>
    <i name="e_0_energy">    -72.58237272 </i>
   </energy>
  </scstep>
  <scstep>
   <time name="dav">    0.50    0.50</time>
   <time name="total">    0.52    0.52</time>
   <energy>
    <i name="alphaZ">    120.39550375 </i>
    <i name="ewald">  -1413.59899669 </i>
    <i name="hartreedc">   -102.89108229 </i>
    <i name="XCdc">    119.03953734 </i>
    <i name="pawpsdc">    552.06651088 </i>
    <i name="pawaedc">   -562.31275548 </i>
    <i name="eentropy">      0.00000000 </i>
    <i name="bandstr">     37.70111815 </i>
    <i name="atom">   1177.01779097 </i>
    <i name="e_fr_energy">    -72.58237338 </i>
    <i name="e_wo_entrp">    -72.58237338 </i>
    <i name="e_0_energy">    -72.58237338 </i>
   </energy>
  </scstep>
  <structure>
   <crystal>
    <varray name="basis" >
     <v>       3.51188700      -0.00000000      -0.00000000 </v>
     <v>       0.00000000       3.51188700      -0.00000000 </v>
     <v>       0.00000000       0.00000000       3.51188700 </v>
    </varray>
    <i name="volume">     43.31333259 </i>
    <varray name="rec_basis" >
     <v>       0.28474720      -0.00000000       0.00000000 </v>
     <v>       0.00000000       0.28474720      -0.00000000 </v>
     <v>       0.00000000       0.00000000       0.28474720 </v>
    </varray>
   </crystal>
   <varray name="positions" >
    <v>       0.75669600       0.75669600       0.75669600 </v>
    <v>       0.00669500       0.50669600       0.00669500 </v>
    <v>       0.50669600       0.50669600       0.50669600 </v>
    <v>       0.00669500       0.00669500       0.50669600 </v>
    <v>       0.50669600       0.00669500       0.00669500 </v>
    <v>       0.75669600       0.25669600       0.25669600 </v>
    <v>       0.25669600       0.25669600       0.75669600 </v>
    <v>       0.25669600       0.75669600       0.25669600 </v>
   </varray>
  </structure>
  <varray name="forces" >
   <v>      -0.00000000      -0.00000000      -0.00000000 </v>
   <v>       0.00000000       0.00000000      -0.00000000 </v>
   <v>       0.00000000      -0.00000000       0.00000000 </v>
   <v>       0.00000000       0.00000000       0.00000000 </v>
   <v>       0.00000000       0.00000000       0.00000000 </v>
   <v>      -0.00000000       0.00000000       0.00000000 </v>
   <v>      -0.00000000       0.00000000      -0.00000000 </v>
   <v>       0.00000000      -0.00000000       0.00000000 </v>
  </varray>
  <varray name="stress" >
   <v>     207.46135424      -0.00000000       0.00000000 </v>
   <v>      -0.00000000     207.46135424      -0.00000000 </v>
   <v>      -0.00000000      -0.00000000     207.46135424 </v>
  </varray>
  <energy>
   <i name="e_fr_energy">    -45.54832929 </i>
   <i name="e_wo_entrp">    -45.54832929 </i>
   <i name="e_0_energy">      0.00000000 </i>
  </energy>
  <time name="totalsc">    9.72    9.74</time>
 </calculation>
 <calculation>
  <scstep>
   <time name="dav">    0.61    0.61</time>
   <time name="total">    0.66    0.66</time>
   <energy>
    <i name="alphaZ">    121.80641893 </i>
    <i name="ewald">  -1419.09955523 </i>
    <i name="hartreedc">   -103.29383942 </i>
    <i name="XCdc">    119.47918361 </i>
    <i name="pawpsdc">    552.06875787 </i>
    <i name="pawaedc">   -562.31468184 </i>
    <i name="eentropy">      0.00000000 </i>
    <i name="bandstr">     41.82656086 </i>
    <i name="atom">   1177.01779097 </i>
    <i name="e_fr_energy">    -72.50936424 </i>
    <i name="e_wo_entrp">    -72.50936424 </i>
    <i name="e_0_energy">    -72.50936424 </i>
   </energy>
  </scstep>
  <scstep>
   <time name="dav">    0.66    0.66</time>
   <time name="total">    0.71    0.72</time>
   <energy>
    <i name="e_fr_energy">    -72.50792262 </i>
    <i name="e_wo_entrp">    -72.50792262 </i>
    <i name="e_0_energy">    -72.50792262 </i>
   </energy>
  </scstep>
  <scstep>
   <time name="dav">    0.59    0.59</time>
   <time name="total">    0.64    0.64</time>
   <energy>
    <i name="e_fr_energy">    -72.50727334 </i>
    <i name="e_wo_entrp">    -72.50727334 </i>
    <i name="e_0_energy">    -72.50727334 </i>
   </energy>
  </scstep>
  <scstep>
   <time name="dav">    0.64    0.64</time>
   <time name="total">    0.69    0.69</time>
   <energy>
    <i name="e_fr_energy">    -72.50727214 </i>
    <i name="e_wo_entrp">    -72.50727214 </i>
    <i name="e_0_energy">    -72.50727214 </i>
   </energy>
  </scstep>
  <scstep>
   <time name="dav">    0.46    0.46</time>
   <time name="total">    0.48    0.48</time>
   <energy>
    <i name="alphaZ">    121.80641893 </i>
    <i name="ewald">  -1419.09955523 </i>
    <i name="hartreedc">   -102.26986292 </i>
    <i name="XCdc">    119.38401793 </i>
    <i name="pawpsdc">    558.53364382 </i>
    <i name="pawaedc">   -568.81796089 </i>
    <i name="eentropy">      0.00000000 </i>
    <i name="bandstr">     40.93823487 </i>
    <i name="atom">   1177.01779097 </i>
    <i name="e_fr_energy">    -72.50727252 </i>
    <i name="e_wo_entrp">    -72.50727252 </i>
    <i name="e_0_energy">    -72.50727252 </i>
   </energy>
  </scstep>
  <structure>
   <crystal>
    <varray name="basis" >
     <v>       3.49827461      -0.00000000       0.00000000 </v>
     <v>      -0.00000000       3.49827461      -0.00000000 </v>
     <v>      -0.00000000      -0.00000000       3.49827461 </v>
    </varray>
    <i name="volume">     42.81162308 </i>
    <varray name="rec_basis" >
     <v>       0.28585520       0.00000000       0.00000000 </v>
     <v>       0.00000000       0.28585520       0.00000000 </v>
     <v>      -0.00000000       0.00000000       0.28585520 </v>
    </varray>
   </crystal>
   <varray name="positions" >
    <v>       0.75669600       0.75669600       0.75669600 </v>
    <v>       0.00669500       0.50669600       0.00669500 </v>
    <v>       0.50669600       0.50669600       0.50669600 </v>
    <v>       0.00669500       0.00669500       0.50669600 </v>
    <v>       0.50669600       0.00669500       0.00669500 </v>
    <v>       0.75669600       0.25669600       0.25669600 </v>
    <v>       0.25669600       0.25669600       0.75669600 </v>
    <v>       0.25669600       0.75669600       0.25669600 </v>
   </varray>
  </structure>
  <varray name="forces" >
   <v>       0.00000000      -0.00000000       0.00000000 </v>
   <v>      -0.00000000       0.00000000      -0.00000000 </v>
   <v>      -0.00000000       0.00000000       0.00000000 </v>
   <v>      -0.00000000      -0.00000000      -0.00000000 </v>
   <v>      -0.00000000       0.00000000      -0.00000000 </v>
   <v>      -0.00000000      -0.00000000       0.00000000 </v>
   <v>       0.00000000      -0.00000000       0.00000000 </v>
   <v>       0.00000000      -0.00000000      -0.00000000 </v>
  </varray>
  <varray name="stress" >
   <v>     272.81863567       0.00000000      -0.00000000 </v>
   <v>       0.00000000     272.81863567       0.00000000 </v>
   <v>       0.00000000      -0.00000000     272.81863567 </v>
  </varray>
  <energy>
   <i name="e_fr_energy">    -45.78637074 </i>
   <i name="e_wo_entrp">    -45.78637074 </i>
   <i name="e_0_energy">      0.00000000 </i>
  </energy>
  <time name="totalsc">    3.36    3.37</time>
 </calculation>
 <calculation>
  <scstep>
   <time name="dav">    0.59    0.59</time>
   <time name="total">    0.64    0.65</time>
   <energy>
    <i name="alphaZ">    126.17371207 </i>
    <i name="ewald">  -1435.86110803 </i>
    <i name="hartreedc">   -103.47713524 </i>
    <i name="XCdc">    120.72172470 </i>
    <i name="pawpsdc">    558.53815356 </i>
    <i name="pawaedc">   -568.82251005 </i>
    <i name="eentropy">      0.00000000 </i>
    <i name="bandstr">     53.53141914 </i>
    <i name="atom">   1177.01779097 </i>
    <i name="e_fr_energy">    -72.17795289 </i>
    <i name="e_wo_entrp">    -72.17795289 </i>
    <i name="e_0_energy">    -72.17795289 </i>
   </energy>
  </scstep>
  <scstep>
   <time name="dav">    0.64    0.64</time>
   <time name="total">    0.69    0.69</time>
   <energy>
    <i name="e_fr_energy">    -72.16485150 </i>
    <i name="e_wo_entrp">    -72.16485150 </i>
    <i name="e_0_energy">    -72.16485150 </i>
   </energy>
  </scstep>
  <scstep>
   <time name="dav">    0.60    0.60</time>
   <time name="total">    0.65    0.65</time>
   <energy>
    <i name="e_fr_energy">    -72.15889533 </i>
    <i name="e_wo_entrp">    -72.15889533 </i>
    <i name="e_0_energy">    -72.15889533 </i>
   </energy>
  </scstep>
  <scstep>
   <time name="dav">    0.64    0.64</time>
   <time name="total">    0.69    0.69</time>
   <energy>
    <i name="e_fr_energy">    -72.15887352 </i>
    <i name="e_wo_entrp">    -72.15887352 </i>
    <i name="e_0_energy">    -72.15887352 </i>
   </energy>
  </scstep>
  <scstep>
   <time name="dav">    0.63    0.63</time>
   <time name="total">    0.68    0.68</time>
   <energy>
    <i name="e_fr_energy">    -72.15886987 </i>
    <i name="e_wo_entrp">    -72.15886987 </i>
    <i name="e_0_energy">    -72.15886987 </i>
   </energy>
  </scstep>
  <scstep>
   <time name="dav">    0.44    0.44</time>
   <time name="total">    0.46    0.46</time>
   <energy>
    <i name="alphaZ">    126.17371207 </i>
    <i name="ewald">  -1435.86110803 </i>
    <i name="hartreedc">   -100.39108680 </i>
    <i name="XCdc">    120.43531987 </i>
    <i name="pawpsdc">    578.81127565 </i>
    <i name="pawaedc">   -589.21285749 </i>
    <i name="eentropy">      0.00000000 </i>
    <i name="bandstr">     50.86808404 </i>
    <i name="atom">   1177.01779097 </i>
    <i name="e_fr_energy">    -72.15886973 </i>
    <i name="e_wo_entrp">    -72.15886973 </i>
    <i name="e_0_energy">    -72.15886973 </i>
   </energy>
  </scstep>
  <structure>
   <crystal>
    <varray name="basis" >
     <v>       3.45743743      -0.00000000       0.00000000 </v>
     <v>      -0.00000000       3.45743743      -0.00000000 </v>
     <v>      -0.00000000      -0.00000000       3.45743743 </v>
    </varray>
    <i name="volume">     41.32976997 </i>
    <varray name="rec_basis" >
     <v>       0.28923155       0.00000000       0.00000000 </v>
     <v>       0.00000000       0.28923155       0.00000000 </v>
     <v>      -0.00000000       0.00000000       0.28923155 </v>
    </varray>
   </crystal>
   <varray name="positions" >
    <v>       0.75669600       0.75669600       0.75669600 </v>
    <v>       0.00669500       0.50669600       0.00669500 </v>
    <v>       0.50669600       0.50669600       0.50669600 </v>
    <v>       0.00669500       0.00669500       0.50669600 </v>
    <v>       0.50669600       0.00669500       0.00669500 </v>
    <v>       0.75669600       0.25669600       0.25669600 </v>
    <v>       0.25669600       0.25669600       0.75669600 </v>
    <v>       0.25669600       0.75669600       0.25669600 </v>
   </varray>
  </structure>
  <varray name="forces" >
   <v>       0.00000000       0.00000000       0.00000000 </v>
   <v>       0.00000000       0.00000000       0.00000000 </v>
   <v>      -0.00000000       0.00000000      -0.00000000 </v>
   <v>      -0.00000000       0.00000000       0.00000000 </v>
   <v>      -0.00000000       0.00000000      -0.00000000 </v>
   <v>       0.00000000       0.00000000      -0.00000000 </v>
   <v>       0.00000000      -0.00000000      -0.00000000 </v>
   <v>      -0.00000000      -0.00000000       0.00000000 </v>
  </varray>
  <varray name="stress" >
   <v>     485.71786730       0.00000000      -0.00000000 </v>
   <v>      -0.00000000     485.71786730       0.00000000 </v>
   <v>       0.00000000      -0.00000000     485.71786730 </v>
  </varray>
  <energy>
   <i name="e_fr_energy">    -46.36286750 </i>
   <i name="e_wo_entrp">    -46.36286750 </i>
   <i name="e_0_energy">      0.00000000 </i>
  </energy>
  <time name="totalsc">    3.99    4.00</time>
 </calculation>
 <calculation>
  <scstep>
   <time name="dav">    0.59    0.59</time>
   <time name="total">    0.64    0.64</time>
   <energy>
    <i name="alphaZ">    135.55514091 </i>
    <i name="ewald">  -1470.60081769 </i>
    <i name="hartreedc">   -102.81975086 </i>
    <i name="XCdc">    123.20066831 </i>
    <i name="pawpsdc">    578.77135882 </i>
    <i name="pawaedc">   -589.17256427 </i>
    <i name="eentropy">      0.00000000 </i>
    <i name="bandstr">     77.11309628 </i>
    <i name="atom">   1177.01779097 </i>
    <i name="e_fr_energy">    -70.93507753 </i>
    <i name="e_wo_entrp">    -70.93507753 </i>
    <i name="e_0_energy">    -70.93507753 </i>
   </energy>
  </scstep>
  <scstep>
   <time name="dav">    0.64    0.64</time>
   <time name="total">    0.69    0.69</time>
   <energy>
    <i name="e_fr_energy">    -70.88218995 </i>
    <i name="e_wo_entrp">    -70.88218995 </i>
    <i name="e_0_energy">    -70.88218995 </i>
   </energy>
  </scstep>
  <scstep>
   <time name="dav">    0.59    0.59</time>
   <time name="total">    0.64    0.64</time>
   <energy>
    <i name="e_fr_energy">    -70.85789797 </i>
    <i name="e_wo_entrp">    -70.85789797 </i>
    <i name="e_0_energy">    -70.85789797 </i>
   </energy>
  </scstep>
  <scstep>
   <time name="dav">    0.65    0.65</time>
   <time name="total">    0.70    0.70</time>
   <energy>
    <i name="e_fr_energy">    -70.85779156 </i>
    <i name="e_wo_entrp">    -70.85779156 </i>
    <i name="e_0_energy">    -70.85779156 </i>
   </energy>
  </scstep>
  <scstep>
   <time name="dav">    0.60    0.60</time>
   <time name="total">    0.65    0.65</time>
   <energy>
    <i name="e_fr_energy">    -70.85776912 </i>
    <i name="e_wo_entrp">    -70.85776912 </i>
    <i name="e_0_energy">    -70.85776912 </i>
   </energy>
  </scstep>
  <scstep>
   <time name="dav">    0.45    0.45</time>
   <time name="total">    0.47    0.47</time>
   <energy>
    <i name="alphaZ">    135.55514091 </i>
    <i name="ewald">  -1470.60081769 </i>
    <i name="hartreedc">    -96.65318762 </i>
    <i name="XCdc">    122.63007624 </i>
    <i name="pawpsdc">    623.87588038 </i>
    <i name="pawaedc">   -634.52174462 </i>
    <i name="eentropy">      0.00000000 </i>
    <i name="bandstr">     71.83909292 </i>
    <i name="atom">   1177.01779097 </i>
    <i name="e_fr_energy">    -70.85776850 </i>
    <i name="e_wo_entrp">    -70.85776850 </i>
    <i name="e_0_energy">    -70.85776850 </i>
   </energy>
  </scstep>
  <structure>
   <crystal>
    <varray name="basis" >
     <v>       3.37576308      -0.00000000       0.00000000 </v>
     <v>      -0.00000000       3.37576308      -0.00000000 </v>
     <v>      -0.00000000      -0.00000000       3.37576308 </v>
    </varray>
    <i name="volume">     38.46944100 </i>
    <varray name="rec_basis" >
     <v>       0.29622932       0.00000000       0.00000000 </v>
     <v>       0.00000000       0.29622932       0.00000000 </v>
     <v>      -0.00000000       0.00000000       0.29622932 </v>
    </varray>
   </crystal>
   <varray name="positions" >
    <v>       0.75669600       0.75669600       0.75669600 </v>
    <v>       0.00669500       0.50669600       0.00669500 </v>
    <v>       0.50669600       0.50669600       0.50669600 </v>
    <v>       0.00669500       0.00669500       0.50669600 </v>
    <v>       0.50669600       0.00669500       0.00669500 </v>
    <v>       0.75669600       0.25669600       0.25669600 </v>
    <v>       0.25669600       0.25669600       0.75669600 </v>
    <v>       0.25669600       0.75669600       0.25669600 </v>
   </varray>
  </structure>
  <varray name="forces" >
   <v>       0.00000000      -0.00000000       0.00000000 </v>
   <v>      -0.00000000       0.00000000      -0.00000000 </v>
   <v>      -0.00000000       0.00000000      -0.00000000 </v>
   <v>      -0.00000000      -0.00000000      -0.00000000 </v>
   <v>      -0.00000000       0.00000000      -0.00000000 </v>
   <v>       0.00000000      -0.00000000       0.00000000 </v>
   <v>       0.00000000       0.00000000       0.00000000 </v>
   <v>       0.00000000      -0.00000000       0.00000000 </v>
  </varray>
  <varray name="stress" >
   <v>     996.22012764       0.00000000      -0.00000000 </v>
   <v>      -0.00000000     996.22012764       0.00000000 </v>
   <v>       0.00000000       0.00000000     996.22012764 </v>
  </varray>
  <energy>
   <i name="e_fr_energy">    -46.84704242 </i>
   <i name="e_wo_entrp">    -46.84704242 </i>
   <i name="e_0_energy">      0.00000000 </i>
  </energy>
  <time name="totalsc">    3.95    3.96</time>
  <eigenvalues>
   <array>
    <dimension dim="1">band</dimension>
    <dimension dim="2">kpoint</dimension>
    <dimension dim="3">spin</dimension>
    <field>eigene</field>
    <field>occ</field>
    <set>
     <set comment="spin 1">
      <set comment="kpoint 1">
       <r>  -11.5241    1.0000 </r>
       <r>   -1.7202    1.0000 </r>
       <r>   -1.7201    1.0000 </r>
       <r>   -1.7201    1.0000 </r>
       <r>   -1.7201    1.0000 </r>
       <r>   -1.7201    1.0000 </r>
       <r>   -1.7201    1.0000 </r>
       <r>    4.9380    1.0000 </r>
       <r>    4.9380    1.0000 </r>
       <r>    4.9380    1.0000 </r>
       <r>    4.9381    1.0000 </r>
       <r>    4.9381    1.0000 </r>
       <r>    4.9381    1.0000 </r>
       <r>   12.3105    1.0000 </r>
       <r>   12.3105    1.0000 </r>
       <r>   12.3106    1.0000 </r>
       <r>   17.3996    0.0000 </r>
       <r>   17.3996    0.0000 </r>
       <r>   17.3996    0.0000 </r>
       <r>   17.3996    0.0000 </r>
       <r>   17.3996    0.0000 </r>
       <r>   17.3997    0.0000 </r>
       <r>   18.3579    0.0000 </r>
       <r>   18.3580    0.0000 </r>
       <r>   18.3580    0.0000 </r>
       <r>   29.6119    0.0000 </r>
       <r>   31.8361    0.0000 </r>
       <r>   31.8361    0.0000 </r>
      </set>
      <set comment="kpoint 2">
       <r>  -11.3631    1.0000 </r>
       <r>   -3.8984    1.0000 </r>
       <r>   -1.6039    1.0000 </r>
       <r>   -1.6039    1.0000 </r>
       <r>   -1.6038    1.0000 </r>
       <r>   -1.6038    1.0000 </r>
       <r>    0.6160    1.0000 </r>
       <r>    4.5774    1.0000 </r>
       <r>    4.5774    1.0000 </r>
       <r>    4.5774    1.0000 </r>
       <r>    4.5774    1.0000 </r>
       <r>    5.0989    1.0000 </r>
       <r>    5.0989    1.0000 </r>
       <r>   11.6341    1.0000 </r>
       <r>   11.6342    1.0000 </r>
       <r>   11.9617    1.0000 </r>
       <r>   16.9573    0.0000 </r>
       <r>   18.0544    0.0000 </r>
       <r>   18.0544    0.0000 </r>
       <r>   18.0544    0.0000 </r>
       <r>   18.0545    0.0000 </r>
       <r>   18.2026    0.0000 </r>
       <r>   18.2497    0.0000 </r>
       <r>   19.1877    0.0000 </r>
       <r>   19.1878    0.0000 </r>
       <r>   29.5608    0.0000 </r>
       <r>   31.2348    0.0000 </r>
       <r>   31.2350    0.0000 </r>
      </set>
      <set comment="kpoint 3">
       <r>  -10.8811    1.0000 </r>
       <r>   -5.8572    1.0000 </r>
       <r>   -1.2795    1.0000 </r>
       <r>   -1.2795    1.0000 </r>
       <r>   -1.2795    1.0000 </r>
       <r>   -1.2794    1.0000 </r>
       <r>    3.0217    1.0000 </r>
       <r>    3.7303    1.0000 </r>
       <r>    3.7304    1.0000 </r>
       <r>    3.7304    1.0000 </r>
       <r>    3.7304    1.0000 </r>
       <r>    5.5793    1.0000 </r>
       <r>    5.5793    1.0000 </r>
       <r>   10.2385    1.0000 </r>
       <r>   10.2386    1.0000 </r>
       <r>   10.9712    1.0000 </r>
       <r>   16.8132    0.0000 </r>
       <r>   17.9447    0.0000 </r>
       <r>   19.4455    0.0000 </r>
       <r>   19.7786    0.0000 </r>
       <r>   19.7786    0.0000 </r>
       <r>   19.7787    0.0000 </r>
       <r>   19.7787    0.0000 </r>
       <r>   21.0253    0.0000 </r>
       <r>   21.0253    0.0000 </r>
       <r>   28.6439    0.0000 </r>
       <r>   29.7203    0.0000 </r>
       <r>   29.7203    0.0000 </r>
      </set>
      <set comment="kpoint 4">
       <r>  -10.0813    1.0000 </r>
       <r>   -7.5562    1.0000 </r>
       <r>   -0.8543    1.0000 </r>
       <r>   -0.8542    1.0000 </r>
       <r>   -0.8542    1.0000 </r>
       <r>   -0.8541    1.0000 </r>
       <r>    2.8516    1.0000 </r>
       <r>    2.8516    1.0000 </r>
       <r>    2.8517    1.0000 </r>
       <r>    2.8517    1.0000 </r>
       <r>    5.3822    1.0000 </r>
       <r>    6.3684    1.0000 </r>
       <r>    6.3684    1.0000 </r>
       <r>    8.7651    1.0000 </r>
       <r>    8.7652    1.0000 </r>
       <r>    9.4682    1.0000 </r>
       <r>   16.9083    0.0000 </r>
       <r>   17.5536    0.0000 </r>
       <r>   21.2031    0.0000 </r>
       <r>   22.0625    0.0000 </r>
       <r>   22.0625    0.0000 </r>
       <r>   22.0626    0.0000 </r>
       <r>   22.0626    0.0000 </r>
       <r>   23.2174    0.0000 </r>
       <r>   23.2174    0.0000 </r>
       <r>   26.2164    0.0000 </r>
       <r>   27.7108    0.0000 </r>
       <r>   27.7108    0.0000 </r>
      </set>
      <set comment="kpoint 5">
       <r>   -8.9697    1.0000 </r>
       <r>   -8.9696    1.0000 </r>
       <r>   -0.6219    1.0000 </r>
       <r>   -0.6218    1.0000 </r>
       <r>   -0.6218    1.0000 </r>
       <r>   -0.6217    1.0000 </r>
       <r>    2.4472    1.0000 </r>
       <r>    2.4472    1.0000 </r>
       <r>    2.4473    1.0000 </r>
       <r>    2.4473    1.0000 </r>
       <r>    7.4436    1.0000 </r>
       <r>    7.4436    1.0000 </r>
       <r>    7.4437    1.0000 </r>
       <r>    7.4437    1.0000 </r>
       <r>    7.5690    1.0000 </r>
       <r>    7.5691    1.0000 </r>
       <r>   17.1771    0.0000 </r>
       <r>   17.1772    0.0000 </r>
       <r>   23.5050    0.0000 </r>
       <r>   23.5051    0.0000 </r>
       <r>   23.6787    0.0000 </r>
       <r>   23.6787    0.0000 </r>
       <r>   23.6788    0.0000 </r>
       <r>   23.6788    0.0000 </r>
       <r>   25.4853    0.0000 </r>
       <r>   25.4853    0.0000 </r>
       <r>   25.4853    0.0000 </r>
       <r>   25.4853    0.0000 </r>
      </set>
      <set comment="kpoint 6">
       <r>  -11.2023    1.0000 </r>
       <r>   -3.7603    1.0000 </r>
       <r>   -3.7602    1.0000 </r>
       <r>   -1.5556    1.0000 </r>
       <r>   -1.4381    1.0000 </r>
       <r>    0.6804    1.0000 </r>
       <r>    0.6804    1.0000 </r>
       <r>    3.4391    1.0000 </r>
       <r>    4.7045    1.0000 </r>
       <r>    4.7046    1.0000 </r>
       <r>    4.8024    1.0000 </r>
       <r>    4.8024    1.0000 </r>
       <r>    5.2167    1.0000 </r>
       <r>   10.7025    1.0000 </r>
       <r>   11.0150    1.0000 </r>
       <r>   12.1069    1.0000 </r>
       <r>   17.6318    0.0000 </r>
       <r>   17.6318    0.0000 </r>
       <r>   17.6487    0.0000 </r>
       <r>   18.6993    0.0000 </r>
       <r>   18.8295    0.0000 </r>
       <r>   18.8295    0.0000 </r>
       <r>   19.4096    0.0000 </r>
       <r>   19.5705    0.0000 </r>
       <r>   19.7377    0.0000 </r>
       <r>   29.5787    0.0000 </r>
       <r>   30.6366    0.0000 </r>
       <r>   30.6367    0.0000 </r>
      </set>
      <set comment="kpoint 7">
       <r>  -10.7209    1.0000 </r>
       <r>   -5.7086    1.0000 </r>
       <r>   -3.3554    1.0000 </r>
       <r>   -1.3932    1.0000 </r>
       <r>   -1.0436    1.0000 </r>
       <r>    0.8000    1.0000 </r>
       <r>    2.2590    1.0000 </r>
       <r>    2.9400    1.0000 </r>
       <r>    3.7636    1.0000 </r>
       <r>    4.1687    1.0000 </r>
       <r>    5.1362    1.0000 </r>
       <r>    5.1612    1.0000 </r>
       <r>    5.4402    1.0000 </r>
       <r>    9.2786    1.0000 </r>
       <r>    9.6927    1.0000 </r>
       <r>   11.4625    1.0000 </r>
       <r>   17.4992    0.0000 </r>
       <r>   18.5326    0.0000 </r>
       <r>   18.5952    0.0000 </r>
       <r>   19.4035    0.0000 </r>
       <r>   20.0294    0.0000 </r>
       <r>   20.4680    0.0000 </r>
       <r>   21.0203    0.0000 </r>
       <r>   21.1432    0.0000 </r>
       <r>   21.7897    0.0000 </r>
       <r>   28.8793    0.0000 </r>
       <r>   29.0123    0.0000 </r>
       <r>   29.0459    0.0000 </r>
      </set>
      <set comment="kpoint 8">
       <r>   -9.9222    1.0000 </r>
       <r>   -7.4020    1.0000 </r>
       <r>   -2.7225    1.0000 </r>
       <r>   -1.4292    1.0000 </r>
       <r>   -0.4545    1.0000 </r>
       <r>    0.7155    1.0000 </r>
       <r>    1.5846    1.0000 </r>
       <r>    2.6910    1.0000 </r>
       <r>    3.7646    1.0000 </r>
       <r>    4.5774    1.0000 </r>
       <r>    4.8771    1.0000 </r>
       <r>    5.9283    1.0000 </r>
       <r>    6.6578    1.0000 </r>
       <r>    7.7992    1.0000 </r>
       <r>    8.2657    1.0000 </r>
       <r>   10.1317    1.0000 </r>
       <r>   17.5991    0.0000 </r>
       <r>   18.2312    0.0000 </r>
       <r>   20.3888    0.0000 </r>
       <r>   21.7247    0.0000 </r>
       <r>   21.8061    0.0000 </r>
       <r>   22.4395    0.0000 </r>
       <r>   22.9842    0.0000 </r>
       <r>   23.1913    0.0000 </r>
       <r>   24.2213    0.0000 </r>
       <r>   26.6323    0.0000 </r>
       <r>   27.0039    0.0000 </r>
       <r>   27.1209    0.0000 </r>
      </set>
      <set comment="kpoint 9">
       <r>   -8.8124    1.0000 </r>
       <r>   -8.8123    1.0000 </r>
       <r>   -1.9754    1.0000 </r>
       <r>   -1.9753    1.0000 </r>
       <r>    0.2185    1.0000 </r>
       <r>    0.2185    1.0000 </r>
       <r>    1.8294    1.0000 </r>
       <r>    1.8295    1.0000 </r>
       <r>    3.9766    1.0000 </r>
       <r>    3.9767    1.0000 </r>
       <r>    6.3774    1.0000 </r>
       <r>    6.3775    1.0000 </r>
       <r>    6.9785    1.0000 </r>
       <r>    6.9786    1.0000 </r>
       <r>    8.4040    1.0000 </r>
       <r>    8.4041    1.0000 </r>
       <r>   17.8661    0.0000 </r>
       <r>   17.8662    0.0000 </r>
       <r>   22.4613    0.0000 </r>
       <r>   22.4614    0.0000 </r>
       <r>   23.8833    0.0000 </r>
       <r>   23.8833    0.0000 </r>
       <r>   24.2933    0.0000 </r>
       <r>   24.2933    0.0000 </r>
       <r>   25.1442    0.0000 </r>
       <r>   25.1442    0.0000 </r>
       <r>   25.4890    0.0000 </r>
       <r>   25.4890    0.0000 </r>
      </set>
      <set comment="kpoint 10">
       <r>  -10.2413    1.0000 </r>
       <r>   -5.2675    1.0000 </r>
       <r>   -5.2674    1.0000 </r>
       <r>   -1.6990    1.0000 </r>
       <r>   -0.5958    1.0000 </r>
       <r>    1.2870    1.0000 </r>
       <r>    2.5640    1.0000 </r>
       <r>    2.5640    1.0000 </r>
       <r>    4.1646    1.0000 </r>
       <r>    4.1647    1.0000 </r>
       <r>    5.2987    1.0000 </r>
       <r>    5.2988    1.0000 </r>
       <r>    6.0262    1.0000 </r>
       <r>    7.8659    1.0000 </r>
       <r>    8.4761    1.0000 </r>
       <r>   11.4410    1.0000 </r>
       <r>   18.3921    0.0000 </r>
       <r>   19.2851    0.0000 </r>
       <r>   19.2851    0.0000 </r>
       <r>   19.7020    0.0000 </r>
       <r>   21.4293    0.0000 </r>
       <r>   21.5146    0.0000 </r>
       <r>   21.5147    0.0000 </r>
       <r>   21.5978    0.0000 </r>
       <r>   24.2649    0.0000 </r>
       <r>   27.3873    0.0000 </r>
       <r>   27.3873    0.0000 </r>
       <r>   28.7631    0.0000 </r>
      </set>
      <set comment="kpoint 11">
       <r>   -9.4461    1.0000 </r>
       <r>   -6.9424    1.0000 </r>
       <r>   -4.5510    1.0000 </r>
       <r>   -2.5411    1.0000 </r>
       <r>    0.0690    1.0000 </r>
       <r>    1.2834    1.0000 </r>
       <r>    1.8117    1.0000 </r>
       <r>    3.0085    1.0000 </r>
       <r>    3.8933    1.0000 </r>
       <r>    4.8871    1.0000 </r>
       <r>    5.4850    1.0000 </r>
       <r>    6.1971    1.0000 </r>
       <r>    6.4451    1.0000 </r>
       <r>    7.0907    1.0000 </r>
       <r>    7.1244    1.0000 </r>
       <r>   10.5569    1.0000 </r>
       <r>   19.3718    0.0000 </r>
       <r>   19.4659    0.0000 </r>
       <r>   19.8309    0.0000 </r>
       <r>   21.7038    0.0000 </r>
       <r>   22.4710    0.0000 </r>
       <r>   22.6910    0.0000 </r>
       <r>   22.8814    0.0000 </r>
       <r>   23.2031    0.0000 </r>
       <r>   25.8819    0.0000 </r>
       <r>   26.1503    0.0000 </r>
       <r>   26.4578    0.0000 </r>
       <r>   27.4769    0.0000 </r>
      </set>
      <set comment="kpoint 12">
       <r>   -8.3424    1.0000 </r>
       <r>   -8.3423    1.0000 </r>
       <r>   -3.6025    1.0000 </r>
       <r>   -3.6024    1.0000 </r>
       <r>    0.9077    1.0000 </r>
       <r>    0.9078    1.0000 </r>
       <r>    1.9747    1.0000 </r>
       <r>    1.9747    1.0000 </r>
       <r>    5.1231    1.0000 </r>
       <r>    5.1231    1.0000 </r>
       <r>    5.8882    1.0000 </r>
       <r>    5.8882    1.0000 </r>
       <r>    5.8926    1.0000 </r>
       <r>    5.8926    1.0000 </r>
       <r>    8.9978    1.0000 </r>
       <r>    8.9978    1.0000 </r>
       <r>   19.5910    0.0000 </r>
       <r>   19.5910    0.0000 </r>
       <r>   21.3311    0.0000 </r>
       <r>   21.3312    0.0000 </r>
       <r>   23.4599    0.0000 </r>
       <r>   23.4600    0.0000 </r>
       <r>   24.3552    0.0000 </r>
       <r>   24.3553    0.0000 </r>
       <r>   25.5078    0.0000 </r>
       <r>   25.5078    0.0000 </r>
       <r>   25.7653    0.0000 </r>
       <r>   25.7653    0.0000 </r>
      </set>
      <set comment="kpoint 13">
       <r>   -8.6576    1.0000 </r>
       <r>   -6.1866    1.0000 </r>
       <r>   -6.1866    1.0000 </r>
       <r>   -3.8981    1.0000 </r>
       <r>    0.7943    1.0000 </r>
       <r>    1.7230    1.0000 </r>
       <r>    2.7835    1.0000 </r>
       <r>    2.7835    1.0000 </r>
       <r>    3.6814    1.0000 </r>
       <r>    3.6814    1.0000 </r>
       <r>    5.0988    1.0000 </r>
       <r>    5.8322    1.0000 </r>
       <r>    7.2738    1.0000 </r>
       <r>    7.4688    1.0000 </r>
       <r>    7.4689    1.0000 </r>
       <r>   10.2753    1.0000 </r>
       <r>   19.5825    0.0000 </r>
       <r>   21.3309    0.0000 </r>
       <r>   21.7230    0.0000 </r>
       <r>   21.7230    0.0000 </r>
       <r>   22.0721    0.0000 </r>
       <r>   22.4571    0.0000 </r>
       <r>   22.4572    0.0000 </r>
       <r>   23.7836    0.0000 </r>
       <r>   26.0879    0.0000 </r>
       <r>   26.4434    0.0000 </r>
       <r>   26.4434    0.0000 </r>
       <r>   27.9928    0.0000 </r>
      </set>
      <set comment="kpoint 14">
       <r>   -7.5657    1.0000 </r>
       <r>   -7.5656    1.0000 </r>
       <r>   -5.1558    1.0000 </r>
       <r>   -5.1557    1.0000 </r>
       <r>    1.7164    1.0000 </r>
       <r>    1.7164    1.0000 </r>
       <r>    2.5756    1.0000 </r>
       <r>    2.5756    1.0000 </r>
       <r>    3.8648    1.0000 </r>
       <r>    3.8649    1.0000 </r>
       <r>    4.6452    1.0000 </r>
       <r>    4.6452    1.0000 </r>
       <r>    7.6276    1.0000 </r>
       <r>    7.6277    1.0000 </r>
       <r>    9.1896    1.0000 </r>
       <r>    9.1896    1.0000 </r>
       <r>   20.7619    0.0000 </r>
       <r>   20.7620    0.0000 </r>
       <r>   21.7423    0.0000 </r>
       <r>   21.7424    0.0000 </r>
       <r>   22.0879    0.0000 </r>
       <r>   22.0880    0.0000 </r>
       <r>   24.1886    0.0000 </r>
       <r>   24.1887    0.0000 </r>
       <r>   25.6721    0.0000 </r>
       <r>   25.6721    0.0000 </r>
       <r>   27.5910    0.0000 </r>
       <r>   27.5910    0.0000 </r>
      </set>
      <set comment="kpoint 15">
       <r>   -6.4952    1.0000 </r>
       <r>   -6.4951    1.0000 </r>
       <r>   -6.4951    1.0000 </r>
       <r>   -6.4950    1.0000 </r>
       <r>    2.7080    1.0000 </r>
       <r>    2.7080    1.0000 </r>
       <r>    2.7080    1.0000 </r>
       <r>    2.7080    1.0000 </r>
       <r>    3.4961    1.0000 </r>
       <r>    3.4961    1.0000 </r>
       <r>    3.4961    1.0000 </r>
       <r>    3.4962    1.0000 </r>
       <r>    8.7835    1.0000 </r>
       <r>    8.7835    1.0000 </r>
       <r>    8.7836    1.0000 </r>
       <r>    8.7836    1.0000 </r>
       <r>   21.0291    0.0000 </r>
       <r>   21.0292    0.0000 </r>
       <r>   21.0292    0.0000 </r>
       <r>   21.0292    0.0000 </r>
       <r>   23.5119    0.0000 </r>
       <r>   23.5119    0.0000 </r>
       <r>   23.5119    0.0000 </r>
       <r>   23.5120    0.0000 </r>
       <r>   26.5007    0.0000 </r>
       <r>   26.5007    0.0000 </r>
       <r>   26.5007    0.0000 </r>
       <r>   26.5008    0.0000 </r>
      </set>
      <set comment="kpoint 16">
       <r>  -11.0417    1.0000 </r>
       <r>   -3.6252    1.0000 </r>
       <r>   -3.6251    1.0000 </r>
       <r>   -3.6251    1.0000 </r>
       <r>    0.7001    1.0000 </r>
       <r>    0.7002    1.0000 </r>
       <r>    0.7002    1.0000 </r>
       <r>    3.6903    1.0000 </r>
       <r>    3.6903    1.0000 </r>
       <r>    3.6903    1.0000 </r>
       <r>    5.3734    1.0000 </r>
       <r>    5.3734    1.0000 </r>
       <r>    5.3735    1.0000 </r>
       <r>    9.5540    1.0000 </r>
       <r>   11.5306    1.0000 </r>
       <r>   11.5306    1.0000 </r>
       <r>   17.6636    0.0000 </r>
       <r>   17.6636    0.0000 </r>
       <r>   17.6636    0.0000 </r>
       <r>   19.3842    0.0000 </r>
       <r>   19.3842    0.0000 </r>
       <r>   19.9001    0.0000 </r>
       <r>   19.9001    0.0000 </r>
       <r>   19.9002    0.0000 </r>
       <r>   20.0575    0.0000 </r>
       <r>   29.6434    0.0000 </r>
       <r>   30.3446    0.0000 </r>
       <r>   30.3446    0.0000 </r>
      </set>
      <set comment="kpoint 17">
       <r>  -10.5609    1.0000 </r>
       <r>   -5.5609    1.0000 </r>
       <r>   -3.2349    1.0000 </r>
       <r>   -3.2348    1.0000 </r>
       <r>    0.5736    1.0000 </r>
       <r>    0.5736    1.0000 </r>
       <r>    2.6410    1.0000 </r>
       <r>    2.7786    1.0000 </r>
       <r>    2.7787    1.0000 </r>
       <r>    4.6120    1.0000 </r>
       <r>    5.3087    1.0000 </r>
       <r>    5.3087    1.0000 </r>
       <r>    5.8409    1.0000 </r>
       <r>    8.0455    1.0000 </r>
       <r>   10.2769    1.0000 </r>
       <r>   11.2328    1.0000 </r>
       <r>   17.7585    0.0000 </r>
       <r>   18.6150    0.0000 </r>
       <r>   18.6150    0.0000 </r>
       <r>   19.1212    0.0000 </r>
       <r>   20.8488    0.0000 </r>
       <r>   20.9685    0.0000 </r>
       <r>   21.2469    0.0000 </r>
       <r>   22.0170    0.0000 </r>
       <r>   22.0170    0.0000 </r>
       <r>   28.8725    0.0000 </r>
       <r>   28.8765    0.0000 </r>
       <r>   29.1179    0.0000 </r>
      </set>
      <set comment="kpoint 18">
       <r>   -9.7632    1.0000 </r>
       <r>   -7.2483    1.0000 </r>
       <r>   -2.6655    1.0000 </r>
       <r>   -2.6654    1.0000 </r>
       <r>   -0.0379    1.0000 </r>
       <r>   -0.0379    1.0000 </r>
       <r>    2.5925    1.0000 </r>
       <r>    2.5926    1.0000 </r>
       <r>    4.0019    1.0000 </r>
       <r>    4.8341    1.0000 </r>
       <r>    4.8341    1.0000 </r>
       <r>    6.3761    1.0000 </r>
       <r>    6.5628    1.0000 </r>
       <r>    6.6063    1.0000 </r>
       <r>    8.9000    1.0000 </r>
       <r>   10.0788    1.0000 </r>
       <r>   17.9829    0.0000 </r>
       <r>   18.7275    0.0000 </r>
       <r>   20.4688    0.0000 </r>
       <r>   20.4688    0.0000 </r>
       <r>   22.3790    0.0000 </r>
       <r>   22.8980    0.0000 </r>
       <r>   23.0260    0.0000 </r>
       <r>   24.1990    0.0000 </r>
       <r>   24.1990    0.0000 </r>
       <r>   26.9690    0.0000 </r>
       <r>   26.9991    0.0000 </r>
       <r>   26.9991    0.0000 </r>
      </set>
      <set comment="kpoint 19">
       <r>   -8.6554    1.0000 </r>
       <r>   -8.6553    1.0000 </r>
       <r>   -2.2823    1.0000 </r>
       <r>   -2.2822    1.0000 </r>
       <r>   -0.5182    1.0000 </r>
       <r>   -0.5181    1.0000 </r>
       <r>    2.7077    1.0000 </r>
       <r>    2.7078    1.0000 </r>
       <r>    4.5331    1.0000 </r>
       <r>    4.5332    1.0000 </r>
       <r>    5.2172    1.0000 </r>
       <r>    5.2173    1.0000 </r>
       <r>    7.6423    1.0000 </r>
       <r>    7.6424    1.0000 </r>
       <r>    8.3625    1.0000 </r>
       <r>    8.3626    1.0000 </r>
       <r>   18.3222    0.0000 </r>
       <r>   18.3222    0.0000 </r>
       <r>   22.0839    0.0000 </r>
       <r>   22.0839    0.0000 </r>
       <r>   24.0008    0.0000 </r>
       <r>   24.0009    0.0000 </r>
       <r>   24.3479    0.0000 </r>
       <r>   24.3479    0.0000 </r>
       <r>   24.9377    0.0000 </r>
       <r>   24.9377    0.0000 </r>
       <r>   25.3035    0.0000 </r>
       <r>   25.3035    0.0000 </r>
      </set>
      <set comment="kpoint 20">
       <r>  -10.0819    1.0000 </r>
       <r>   -5.1239    1.0000 </r>
       <r>   -5.1239    1.0000 </r>
       <r>   -2.9264    1.0000 </r>
       <r>   -0.2799    1.0000 </r>
       <r>    1.6935    1.0000 </r>
       <r>    1.6935    1.0000 </r>
       <r>    2.5055    1.0000 </r>
       <r>    4.3463    1.0000 </r>
       <r>    4.3463    1.0000 </r>
       <r>    5.8716    1.0000 </r>
       <r>    5.8717    1.0000 </r>
       <r>    6.1687    1.0000 </r>
       <r>    6.5022    1.0000 </r>
       <r>    9.5682    1.0000 </r>
       <r>   11.1031    1.0000 </r>
       <r>   18.5146    0.0000 </r>
       <r>   18.8480    0.0000 </r>
       <r>   18.8480    0.0000 </r>
       <r>   20.0327    0.0000 </r>
       <r>   21.2177    0.0000 </r>
       <r>   21.7198    0.0000 </r>
       <r>   22.7016    0.0000 </r>
       <r>   22.7016    0.0000 </r>
       <r>   24.4273    0.0000 </r>
       <r>   27.3364    0.0000 </r>
       <r>   27.3365    0.0000 </r>
       <r>   28.1706    0.0000 </r>
      </set>
      <set comment="kpoint 21">
       <r>   -9.2878    1.0000 </r>
       <r>   -6.7902    1.0000 </r>
       <r>   -4.4209    1.0000 </r>
       <r>   -2.8158    1.0000 </r>
       <r>   -0.9973    1.0000 </r>
       <r>    0.4987    1.0000 </r>
       <r>    2.6279    1.0000 </r>
       <r>    2.8968    1.0000 </r>
       <r>    4.1016    1.0000 </r>
[...]
        <r>  0.0000  0.0021  0.0084  0.0021  0.0000  0.0000  0.0000  0.0000  0.0000 </r>
        <r>  0.2121  0.0021  0.0000  0.0021  0.0000  0.0000  0.0000  0.0000  0.0000 </r>
        <r>  0.0531  0.0084  0.0021  0.0000  0.0000  0.0000  0.0000  0.0000  0.0000 </r>
        <r>  0.0531  0.0084  0.0021  0.0000  0.0000  0.0000  0.0000  0.0000  0.0000 </r>
        <r>  0.2121  0.0021  0.0000  0.0021  0.0000  0.0000  0.0000  0.0000  0.0000 </r>
        <r>  0.0530  0.0000  0.0021  0.0084  0.0000  0.0000  0.0000  0.0000  0.0000 </r>
       </set>
       <set comment="band 5">
        <r>  0.0000  0.0118  0.0473  0.0118  0.0000  0.0000  0.0000  0.0000  0.0000 </r>
        <r>  0.0128  0.0000  0.0118  0.0473  0.0000  0.0000  0.0000  0.0000  0.0000 </r>
        <r>  0.0000  0.0118  0.0473  0.0118  0.0000  0.0000  0.0000  0.0000  0.0000 </r>
        <r>  0.0512  0.0118  0.0000  0.0118  0.0000  0.0000  0.0000  0.0000  0.0000 </r>
        <r>  0.0128  0.0473  0.0118  0.0000  0.0000  0.0000  0.0000  0.0000  0.0000 </r>
        <r>  0.0128  0.0473  0.0118  0.0000  0.0000  0.0000  0.0000  0.0000  0.0000 </r>
        <r>  0.0512  0.0118  0.0000  0.0118  0.0000  0.0000  0.0000  0.0000  0.0000 </r>
        <r>  0.0128  0.0000  0.0118  0.0473  0.0000  0.0000  0.0000  0.0000  0.0000 </r>
       </set>
       <set comment="band 6">
        <r>  0.0000  0.0354  0.0000  0.0355  0.0000  0.0000  0.0000  0.0000  0.0000 </r>
        <r>  0.0384  0.0000  0.0355  0.0000  0.0000  0.0000  0.0000  0.0000  0.0000 </r>
        <r>  0.0000  0.0354  0.0000  0.0355  0.0000  0.0000  0.0000  0.0000  0.0000 </r>
        <r>  0.0000  0.0355  0.0000  0.0354  0.0000  0.0000  0.0000  0.0000  0.0000 </r>
        <r>  0.0384  0.0000  0.0354  0.0000  0.0000  0.0000  0.0000  0.0000  0.0000 </r>
        <r>  0.0384  0.0000  0.0354  0.0000  0.0000  0.0000  0.0000  0.0000  0.0000 </r>
        <r>  0.0000  0.0355  0.0000  0.0354  0.0000  0.0000  0.0000  0.0000  0.0000 </r>
        <r>  0.0384  0.0000  0.0355  0.0000  0.0000  0.0000  0.0000  0.0000  0.0000 </r>
       </set>
       <set comment="band 7">
        <r>  0.0040  0.0224  0.0224  0.0224  0.0000  0.0000  0.0000  0.0000  0.0000 </r>
        <r>  0.0021  0.0650  0.0020  0.0020  0.0000  0.0000  0.0000  0.0000  0.0000 </r>
        <r>  0.0705  0.0020  0.0020  0.0020  0.0000  0.0000  0.0000  0.0000  0.0000 </r>
        <r>  0.0021  0.0020  0.0650  0.0020  0.0000  0.0000  0.0000  0.0000  0.0000 </r>
        <r>  0.0021  0.0020  0.0020  0.0650  0.0000  0.0000  0.0000  0.0000  0.0000 </r>
        <r>  0.0243  0.0224  0.0224  0.0037  0.0000  0.0000  0.0000  0.0000  0.0000 </r>
        <r>  0.0243  0.0224  0.0037  0.0224  0.0000  0.0000  0.0000  0.0000  0.0000 </r>
        <r>  0.0243  0.0037  0.0224  0.0224  0.0000  0.0000  0.0000  0.0000  0.0000 </r>
       </set>
       <set comment="band 8">
        <r>  0.0728  0.0012  0.0012  0.0012  0.0000  0.0000  0.0000  0.0000  0.0000 </r>
        <r>  0.0235  0.0059  0.0217  0.0217  0.0000  0.0000  0.0000  0.0000  0.0000 </r>
        <r>  0.0064  0.0217  0.0217  0.0217  0.0000  0.0000  0.0000  0.0000  0.0000 </r>
        <r>  0.0235  0.0217  0.0059  0.0217  0.0000  0.0000  0.0000  0.0000  0.0000 </r>
        <r>  0.0235  0.0217  0.0217  0.0059  0.0000  0.0000  0.0000  0.0000  0.0000 </r>
        <r>  0.0013  0.0012  0.0012  0.0672  0.0000  0.0000  0.0000  0.0000  0.0000 </r>
        <r>  0.0013  0.0012  0.0672  0.0012  0.0000  0.0000  0.0000  0.0000  0.0000 </r>
        <r>  0.0013  0.0672  0.0012  0.0012  0.0000  0.0000  0.0000  0.0000  0.0000 </r>
       </set>
       <set comment="band 9">
        <r>  0.0000  0.1255  0.0002  0.1349  0.0000  0.0000  0.0000  0.0000  0.0000 </r>
        <r>  0.0000  0.0848  0.0297  0.0601  0.0000  0.0000  0.0000  0.0000  0.0000 </r>
        <r>  0.0000  0.0114  0.0000  0.0123  0.0000  0.0000  0.0000  0.0000  0.0000 </r>
        <r>  0.0000  0.0038  0.0001  0.0059  0.0000  0.0000  0.0000  0.0000  0.0000 </r>
        <r>  0.0000  0.0620  0.0337  0.0911  0.0000  0.0000  0.0000  0.0000  0.0000 </r>
        <r>  0.0000  0.0000  0.0305  0.0021  0.0000  0.0000  0.0000  0.0000  0.0000 </r>
        <r>  0.0000  0.0345  0.0000  0.0323  0.0000  0.0000  0.0000  0.0000  0.0000 </r>
        <r>  0.0000  0.0019  0.0329  0.0001  0.0000  0.0000  0.0000  0.0000  0.0000 </r>
       </set>
       <set comment="band 10">
        <r>  0.0000  0.0482  0.1735  0.0388  0.0000  0.0000  0.0000  0.0000  0.0000 </r>
        <r>  0.0000  0.0325  0.0354  0.0050  0.0000  0.0000  0.0000  0.0000  0.0000 </r>
        <r>  0.0000  0.0044  0.0158  0.0035  0.0000  0.0000  0.0000  0.0000  0.0000 </r>
        <r>  0.0000  0.0613  0.1172  0.0592  0.0000  0.0000  0.0000  0.0000  0.0000 </r>
        <r>  0.0000  0.0030  0.0313  0.0262  0.0000  0.0000  0.0000  0.0000  0.0000 </r>
        <r>  0.0000  0.0434  0.0130  0.0006  0.0000  0.0000  0.0000  0.0000  0.0000 </r>
        <r>  0.0000  0.0089  0.0027  0.0112  0.0000  0.0000  0.0000  0.0000  0.0000 </r>
        <r>  0.0000  0.0007  0.0105  0.0433  0.0000  0.0000  0.0000  0.0000  0.0000 </r>
       </set>
       <set comment="band 11">
        <r>  0.0000  0.0877  0.0877  0.0877  0.0000  0.0000  0.0000  0.0000  0.0000 </r>
        <r>  0.0000  0.0000  0.0219  0.0219  0.0000  0.0000  0.0000  0.0000  0.0000 </r>
        <r>  0.0000  0.0877  0.0877  0.0877  0.0000  0.0000  0.0000  0.0000  0.0000 </r>
        <r>  0.0000  0.0219  0.0000  0.0219  0.0000  0.0000  0.0000  0.0000  0.0000 </r>
        <r>  0.0000  0.0219  0.0219  0.0000  0.0000  0.0000  0.0000  0.0000  0.0000 </r>
        <r>  0.0000  0.0219  0.0219  0.0000  0.0000  0.0000  0.0000  0.0000  0.0000 </r>
        <r>  0.0000  0.0219  0.0000  0.0219  0.0000  0.0000  0.0000  0.0000  0.0000 </r>
        <r>  0.0000  0.0000  0.0219  0.0219  0.0000  0.0000  0.0000  0.0000  0.0000 </r>
       </set>
       <set comment="band 12">
        <r>  0.0000  0.0000  0.0000  0.0000  0.0000  0.0000  0.0000  0.0000  0.0000 </r>
        <r>  0.0000  0.0000  0.0658  0.0658  0.0000  0.0000  0.0000  0.0000  0.0000 </r>
        <r>  0.0000  0.0000  0.0000  0.0000  0.0000  0.0000  0.0000  0.0000  0.0000 </r>
        <r>  0.0000  0.0658  0.0000  0.0658  0.0000  0.0000  0.0000  0.0000  0.0000 </r>
        <r>  0.0000  0.0658  0.0658  0.0000  0.0000  0.0000  0.0000  0.0000  0.0000 </r>
        <r>  0.0000  0.0658  0.0658  0.0000  0.0000  0.0000  0.0000  0.0000  0.0000 </r>
        <r>  0.0000  0.0658  0.0000  0.0658  0.0000  0.0000  0.0000  0.0000  0.0000 </r>
        <r>  0.0000  0.0000  0.0658  0.0658  0.0000  0.0000  0.0000  0.0000  0.0000 </r>
       </set>
       <set comment="band 13">
        <r>  0.0000  0.0001  0.0000  0.0002  0.0000  0.0000  0.0000  0.0000  0.0000 </r>
        <r>  0.0000  0.0211  0.0285  0.0021  0.0000  0.0000  0.0000  0.0000  0.0000 </r>
        <r>  0.0000  0.0998  0.0018  0.1281  0.0000  0.0000  0.0000  0.0000  0.0000 </r>
        <r>  0.0000  0.0357  0.0004  0.0298  0.0000  0.0000  0.0000  0.0000  0.0000 </r>
        <r>  0.0000  0.0000  0.0205  0.0270  0.0000  0.0000  0.0000  0.0000  0.0000 </r>
        <r>  0.0000  0.1044  0.0349  0.0424  0.0000  0.0000  0.0000  0.0000  0.0000 </r>
        <r>  0.0000  0.0190  0.0006  0.0391  0.0000  0.0000  0.0000  0.0000  0.0000 </r>
        <r>  0.0000  0.0330  0.0157  0.1054  0.0000  0.0000  0.0000  0.0000  0.0000 </r>
       </set>
       <set comment="band 14">
        <r>  0.0000  0.0001  0.0002  0.0000  0.0000  0.0000  0.0000  0.0000  0.0000 </r>
        <r>  0.0000  0.0113  0.0104  0.0368  0.0000  0.0000  0.0000  0.0000  0.0000 </r>
        <r>  0.0000  0.0533  0.1513  0.0250  0.0000  0.0000  0.0000  0.0000  0.0000 </r>
        <r>  0.0000  0.0032  0.0320  0.0091  0.0000  0.0000  0.0000  0.0000  0.0000 </r>
        <r>  0.0000  0.0389  0.0184  0.0053  0.0000  0.0000  0.0000  0.0000  0.0000 </r>
        <r>  0.0000  0.0017  0.0713  0.0083  0.0000  0.0000  0.0000  0.0000  0.0000 </r>
        <r>  0.0000  0.0872  0.0501  0.0671  0.0000  0.0000  0.0000  0.0000  0.0000 </r>
        <r>  0.0000  0.0177  0.0905  0.0008  0.0000  0.0000  0.0000  0.0000  0.0000 </r>
       </set>
       <set comment="band 15">
        <r>  0.0000  0.0014  0.0000  0.0010  0.0000  0.0000  0.0000  0.0000  0.0000 </r>
        <r>  0.0000  0.0983  0.0177  0.0653  0.0000  0.0000  0.0000  0.0000  0.0000 </r>
        <r>  0.0000  0.0057  0.0001  0.0040  0.0000  0.0000  0.0000  0.0000  0.0000 </r>
        <r>  0.0000  0.0385  0.0025  0.0181  0.0000  0.0000  0.0000  0.0000  0.0000 </r>
        <r>  0.0000  0.0715  0.0035  0.0696  0.0000  0.0000  0.0000  0.0000  0.0000 </r>
        <r>  0.0000  0.0240  0.0060  0.1286  0.0000  0.0000  0.0000  0.0000  0.0000 </r>
        <r>  0.0000  0.0070  0.0046  0.0016  0.0000  0.0000  0.0000  0.0000  0.0000 </r>
        <r>  0.0000  0.1817  0.0132  0.0259  0.0000  0.0000  0.0000  0.0000  0.0000 </r>
       </set>
       <set comment="band 16">
        <r>  0.0000  0.0002  0.0016  0.0006  0.0000  0.0000  0.0000  0.0000  0.0000 </r>
        <r>  0.0000  0.0153  0.0539  0.0062  0.0000  0.0000  0.0000  0.0000  0.0000 </r>
        <r>  0.0000  0.0009  0.0064  0.0025  0.0000  0.0000  0.0000  0.0000  0.0000 </r>
        <r>  0.0000  0.0331  0.1111  0.0534  0.0000  0.0000  0.0000  0.0000  0.0000 </r>
        <r>  0.0000  0.0000  0.0680  0.0440  0.0000  0.0000  0.0000  0.0000  0.0000 </r>
        <r>  0.0000  0.0019  0.0199  0.0813  0.0000  0.0000  0.0000  0.0000  0.0000 </r>
        <r>  0.0000  0.0189  0.2053  0.0243  0.0000  0.0000  0.0000  0.0000  0.0000 </r>
        <r>  0.0000  0.0282  0.0126  0.0000  0.0000  0.0000  0.0000  0.0000  0.0000 </r>
       </set>
       <set comment="band 17">
        <r>  0.0000  0.0006  0.0108  0.0062  0.0000  0.0000  0.0000  0.0000  0.0000 </r>
        <r>  0.0000  0.0016  0.0423  0.0136  0.0000  0.0000  0.0000  0.0000  0.0000 </r>
        <r>  0.0000  0.0004  0.0078  0.0045  0.0000  0.0000  0.0000  0.0000  0.0000 </r>
        <r>  0.0000  0.0192  0.0273  0.0548  0.0000  0.0000  0.0000  0.0000  0.0000 </r>
        <r>  0.0000  0.0008  0.0651  0.0158  0.0000  0.0000  0.0000  0.0000  0.0000 </r>
        <r>  0.0000  0.0055  0.0040  0.0739  0.0000  0.0000  0.0000  0.0000  0.0000 </r>
        <r>  0.0000  0.0086  0.1274  0.0078  0.0000  0.0000  0.0000  0.0000  0.0000 </r>
        <r>  0.0000  0.0073  0.0002  0.0009  0.0000  0.0000  0.0000  0.0000  0.0000 </r>
       </set>
       <set comment="band 18">
        <r>  0.0000  0.0111  0.0010  0.0055  0.0000  0.0000  0.0000  0.0000  0.0000 </r>
        <r>  0.0000  0.0282  0.0230  0.0516  0.0000  0.0000  0.0000  0.0000  0.0000 </r>
        <r>  0.0000  0.0080  0.0007  0.0040  0.0000  0.0000  0.0000  0.0000  0.0000 </r>
        <r>  0.0000  0.0461  0.0025  0.0105  0.0000  0.0000  0.0000  0.0000  0.0000 </r>
        <r>  0.0000  0.0644  0.0002  0.0140  0.0000  0.0000  0.0000  0.0000  0.0000 </r>
        <r>  0.0000  0.0035  0.0050  0.0652  0.0000  0.0000  0.0000  0.0000  0.0000 </r>
        <r>  0.0000  0.0004  0.0116  0.0012  0.0000  0.0000  0.0000  0.0000  0.0000 </r>
        <r>  0.0000  0.1318  0.0088  0.0081  0.0000  0.0000  0.0000  0.0000  0.0000 </r>
       </set>
       <set comment="band 19">
        <r>  0.0000  0.0563  0.0563  0.0563  0.0000  0.0000  0.0000  0.0000  0.0000 </r>
        <r>  0.0000  0.0000  0.0141  0.0141  0.0000  0.0000  0.0000  0.0000  0.0000 </r>
        <r>  0.0000  0.0563  0.0563  0.0563  0.0000  0.0000  0.0000  0.0000  0.0000 </r>
        <r>  0.0000  0.0141  0.0000  0.0141  0.0000  0.0000  0.0000  0.0000  0.0000 </r>
        <r>  0.0000  0.0141  0.0141  0.0000  0.0000  0.0000  0.0000  0.0000  0.0000 </r>
        <r>  0.0000  0.0141  0.0141  0.0000  0.0000  0.0000  0.0000  0.0000  0.0000 </r>
        <r>  0.0000  0.0141  0.0000  0.0141  0.0000  0.0000  0.0000  0.0000  0.0000 </r>
        <r>  0.0000  0.0000  0.0141  0.0141  0.0000  0.0000  0.0000  0.0000  0.0000 </r>
       </set>
       <set comment="band 20">
        <r>  0.0000  0.0170  0.0001  0.0147  0.0000  0.0000  0.0000  0.0000  0.0000 </r>
        <r>  0.0000  0.0779  0.0037  0.0018  0.0000  0.0000  0.0000  0.0000  0.0000 </r>
        <r>  0.0000  0.0356  0.0002  0.0309  0.0000  0.0000  0.0000  0.0000  0.0000 </r>
        <r>  0.0000  0.0132  0.0004  0.0135  0.0000  0.0000  0.0000  0.0000  0.0000 </r>
        <r>  0.0000  0.0031  0.0053  0.0676  0.0000  0.0000  0.0000  0.0000  0.0000 </r>
        <r>  0.0000  0.0695  0.0026  0.0014  0.0000  0.0000  0.0000  0.0000  0.0000 </r>
        <r>  0.0000  0.0417  0.0000  0.0328  0.0000  0.0000  0.0000  0.0000  0.0000 </r>
        <r>  0.0000  0.0016  0.0068  0.0649  0.0000  0.0000  0.0000  0.0000  0.0000 </r>
       </set>
       <set comment="band 21">
        <r>  0.0000  0.0042  0.0211  0.0065  0.0000  0.0000  0.0000  0.0000  0.0000 </r>
        <r>  0.0000  0.0193  0.0098  0.0117  0.0000  0.0000  0.0000  0.0000  0.0000 </r>
        <r>  0.0000  0.0089  0.0443  0.0136  0.0000  0.0000  0.0000  0.0000  0.0000 </r>
        <r>  0.0000  0.0003  0.0968  0.0000  0.0000  0.0000  0.0000  0.0000  0.0000 </r>
        <r>  0.0000  0.0105  0.0083  0.0296  0.0000  0.0000  0.0000  0.0000  0.0000 </r>
        <r>  0.0000  0.0032  0.0702  0.0006  0.0000  0.0000  0.0000  0.0000  0.0000 </r>
        <r>  0.0000  0.0311  0.0020  0.0400  0.0000  0.0000  0.0000  0.0000  0.0000 </r>
        <r>  0.0000  0.0004  0.0659  0.0078  0.0000  0.0000  0.0000  0.0000  0.0000 </r>
       </set>
       <set comment="band 22">
        <r>  0.0000  0.0149  0.0255  0.0790  0.0000  0.0000  0.0000  0.0000  0.0000 </r>
        <r>  0.0000  0.0078  0.0123  0.0020  0.0000  0.0000  0.0000  0.0000  0.0000 </r>
        <r>  0.0000  0.0111  0.0190  0.0591  0.0000  0.0000  0.0000  0.0000  0.0000 </r>
        <r>  0.0000  0.0175  0.0134  0.0051  0.0000  0.0000  0.0000  0.0000  0.0000 </r>
        <r>  0.0000  0.0331  0.0311  0.0415  0.0000  0.0000  0.0000  0.0000  0.0000 </r>
        <r>  0.0000  0.0274  0.0240  0.0275  0.0000  0.0000  0.0000  0.0000  0.0000 </r>
        <r>  0.0000  0.0221  0.0089  0.0011  0.0000  0.0000  0.0000  0.0000  0.0000 </r>
        <r>  0.0000  0.0052  0.0176  0.0001  0.0000  0.0000  0.0000  0.0000  0.0000 </r>
       </set>
       <set comment="band 23">
        <r>  0.0000  0.0647  0.0541  0.0006  0.0000  0.0000  0.0000  0.0000  0.0000 </r>
        <r>  0.0000  0.0340  0.0214  0.0317  0.0000  0.0000  0.0000  0.0000  0.0000 </r>
        <r>  0.0000  0.0484  0.0405  0.0004  0.0000  0.0000  0.0000  0.0000  0.0000 </r>
        <r>  0.0000  0.0162  0.0284  0.0286  0.0000  0.0000  0.0000  0.0000  0.0000 </r>
        <r>  0.0000  0.0006  0.0026  0.0003  0.0000  0.0000  0.0000  0.0000  0.0000 </r>
        <r>  0.0000  0.0033  0.0068  0.0002  0.0000  0.0000  0.0000  0.0000  0.0000 </r>
        <r>  0.0000  0.0087  0.0188  0.0296  0.0000  0.0000  0.0000  0.0000  0.0000 </r>
        <r>  0.0000  0.0225  0.0132  0.0307  0.0000  0.0000  0.0000  0.0000  0.0000 </r>
       </set>
       <set comment="band 24">
        <r>  0.0000  0.0000  0.0000  0.0000  0.0000  0.0000  0.0000  0.0000  0.0000 </r>
        <r>  0.0000  0.0000  0.0422  0.0422  0.0000  0.0000  0.0000  0.0000  0.0000 </r>
        <r>  0.0000  0.0000  0.0000  0.0000  0.0000  0.0000  0.0000  0.0000  0.0000 </r>
        <r>  0.0000  0.0422  0.0000  0.0422  0.0000  0.0000  0.0000  0.0000  0.0000 </r>
        <r>  0.0000  0.0422  0.0422  0.0000  0.0000  0.0000  0.0000  0.0000  0.0000 </r>
        <r>  0.0000  0.0422  0.0422  0.0000  0.0000  0.0000  0.0000  0.0000  0.0000 </r>
        <r>  0.0000  0.0422  0.0000  0.0422  0.0000  0.0000  0.0000  0.0000  0.0000 </r>
        <r>  0.0000  0.0000  0.0422  0.0422  0.0000  0.0000  0.0000  0.0000  0.0000 </r>
       </set>
       <set comment="band 25">
        <r>  0.2942  0.0000  0.0000  0.0000  0.0000  0.0000  0.0000  0.0000  0.0000 </r>
        <r>  0.0744  0.0006  0.0006  0.0006  0.0000  0.0000  0.0000  0.0000  0.0000 </r>
        <r>  0.0711  0.0006  0.0006  0.0006  0.0000  0.0000  0.0000  0.0000  0.0000 </r>
        <r>  0.0744  0.0006  0.0006  0.0006  0.0000  0.0000  0.0000  0.0000  0.0000 </r>
        <r>  0.0744  0.0006  0.0006  0.0006  0.0000  0.0000  0.0000  0.0000  0.0000 </r>
        <r>  0.0000  0.0000  0.0000  0.0023  0.0000  0.0000  0.0000  0.0000  0.0000 </r>
        <r>  0.0000  0.0000  0.0023  0.0000  0.0000  0.0000  0.0000  0.0000  0.0000 </r>
        <r>  0.0000  0.0023  0.0000  0.0000  0.0000  0.0000  0.0000  0.0000  0.0000 </r>
       </set>
       <set comment="band 26">
        <r>  0.0000  0.0008  0.0008  0.0008  0.0000  0.0000  0.0000  0.0000  0.0000 </r>
        <r>  0.0237  0.0017  0.0002  0.0002  0.0000  0.0000  0.0000  0.0000  0.0000 </r>
        <r>  0.2232  0.0002  0.0002  0.0002  0.0000  0.0000  0.0000  0.0000  0.0000 </r>
        <r>  0.0237  0.0002  0.0017  0.0002  0.0000  0.0000  0.0000  0.0000  0.0000 </r>
        <r>  0.0237  0.0002  0.0002  0.0017  0.0000  0.0000  0.0000  0.0000  0.0000 </r>
        <r>  0.0981  0.0008  0.0008  0.0000  0.0000  0.0000  0.0000  0.0000  0.0000 </r>
        <r>  0.0981  0.0008  0.0000  0.0008  0.0000  0.0000  0.0000  0.0000  0.0000 </r>
        <r>  0.0981  0.0000  0.0008  0.0008  0.0000  0.0000  0.0000  0.0000  0.0000 </r>
       </set>
       <set comment="band 27">
        <r>  0.0000  0.0006  0.0015  0.0002  0.0000  0.0000  0.0000  0.0000  0.0000 </r>
        <r>  0.0766  0.0000  0.0002  0.0015  0.0000  0.0000  0.0000  0.0000  0.0000 </r>
        <r>  0.0000  0.0006  0.0015  0.0002  0.0000  0.0000  0.0000  0.0000  0.0000 </r>
        <r>  0.1917  0.0002  0.0000  0.0006  0.0000  0.0000  0.0000  0.0000  0.0000 </r>
        <r>  0.0260  0.0015  0.0006  0.0000  0.0000  0.0000  0.0000  0.0000  0.0000 </r>
        <r>  0.0260  0.0015  0.0006  0.0000  0.0000  0.0000  0.0000  0.0000  0.0000 </r>
        <r>  0.1917  0.0002  0.0000  0.0006  0.0000  0.0000  0.0000  0.0000  0.0000 </r>
        <r>  0.0766  0.0000  0.0002  0.0015  0.0000  0.0000  0.0000  0.0000  0.0000 </r>
       </set>
       <set comment="band 28">
        <r>  0.0000  0.0009  0.0000  0.0013  0.0000  0.0000  0.0000  0.0000  0.0000 </r>
        <r>  0.1196  0.0000  0.0013  0.0000  0.0000  0.0000  0.0000  0.0000  0.0000 </r>
        <r>  0.0000  0.0009  0.0000  0.0013  0.0000  0.0000  0.0000  0.0000  0.0000 </r>
        <r>  0.0045  0.0013  0.0000  0.0009  0.0000  0.0000  0.0000  0.0000  0.0000 </r>
        <r>  0.1702  0.0000  0.0009  0.0000  0.0000  0.0000  0.0000  0.0000  0.0000 </r>
        <r>  0.1702  0.0000  0.0009  0.0000  0.0000  0.0000  0.0000  0.0000  0.0000 </r>
        <r>  0.0045  0.0013  0.0000  0.0009  0.0000  0.0000  0.0000  0.0000  0.0000 </r>
        <r>  0.1196  0.0000  0.0013  0.0000  0.0000  0.0000  0.0000  0.0000  0.0000 </r>
       </set>
      </set>
     </set>
    </set>
   </array>
  </projected>
 </calculation>
 <structure name="finalpos" >
  <crystal>
   <varray name="basis" >
    <v>       3.37576308      -0.00000000       0.00000000 </v>
    <v>      -0.00000000       3.37576308      -0.00000000 </v>
    <v>      -0.00000000      -0.00000000       3.37576308 </v>
   </varray>
   <i name="volume">     38.46944100 </i>
   <varray name="rec_basis" >
    <v>       0.29622932       0.00000000       0.00000000 </v>
    <v>       0.00000000       0.29622932       0.00000000 </v>
    <v>      -0.00000000       0.00000000       0.29622932 </v>
   </varray>
  </crystal>
  <varray name="positions" >
   <v>       0.75669600       0.75669600       0.75669600 </v>
   <v>       0.00669500       0.50669600       0.00669500 </v>
   <v>       0.50669600       0.50669600       0.50669600 </v>
   <v>       0.00669500       0.00669500       0.50669600 </v>
   <v>       0.50669600       0.00669500       0.00669500 </v>
   <v>       0.75669600       0.25669600       0.25669600 </v>
   <v>       0.25669600       0.25669600       0.75669600 </v>
   <v>       0.25669600       0.75669600       0.25669600 </v>
  </varray>
 </structure>
</modeling>
