unknown system                          
            1
     3.511887   -0.000000   -0.000000
     0.000000    3.511887   -0.000000
     0.000000    0.000000    3.511887
   C 
   8
Direct configuration=     1
   0.75669600  0.75669600  0.75669600
   0.00669500  0.50669600  0.00669500
   0.50669600  0.50669600  0.50669600
   0.00669500  0.00669500  0.50669600
   0.50669600  0.00669500  0.00669500
   0.75669600  0.25669600  0.25669600
   0.25669600  0.25669600  0.75669600
   0.25669600  0.75669600  0.25669600
unknown system                          
            1
     3.498275   -0.000000    0.000000
    -0.000000    3.498275   -0.000000
    -0.000000   -0.000000    3.498275
   C 
   8
Direct configuration=     2
   0.75669600  0.75669600  0.75669600
   0.00669500  0.50669600  0.00669500
   0.50669600  0.50669600  0.50669600
   0.00669500  0.00669500  0.50669600
   0.50669600  0.00669500  0.00669500
   0.75669600  0.25669600  0.25669600
   0.25669600  0.25669600  0.75669600
   0.25669600  0.75669600  0.25669600
unknown system                          
            1
     3.457437   -0.000000    0.000000
    -0.000000    3.457437   -0.000000
    -0.000000   -0.000000    3.457437
   C 
   8
Direct configuration=     3
   0.75669600  0.75669600  0.75669600
   0.00669500  0.50669600  0.00669500
   0.50669600  0.50669600  0.50669600
   0.00669500  0.00669500  0.50669600
   0.50669600  0.00669500  0.00669500
   0.75669600  0.25669600  0.25669600
   0.25669600  0.25669600  0.75669600
   0.25669600  0.75669600  0.25669600
unknown system                          
            1
     3.375763   -0.000000    0.000000
    -0.000000    3.375763   -0.000000
    -0.000000   -0.000000    3.375763
   C 
   8
Direct configuration=     4
   0.75669600  0.75669600  0.75669600
   0.00669500  0.50669600  0.00669500
   0.50669600  0.50669600  0.50669600
   0.00669500  0.00669500  0.50669600
   0.50669600  0.00669500  0.00669500
   0.75669600  0.25669600  0.25669600
   0.25669600  0.25669600  0.75669600
   0.25669600  0.75669600  0.25669600
